# vtk DataFile Version 5.1
vtk output
ASCII
DATASET POLYDATA
POINTS 3000 double
-79.344095719 6.5781349032 -0.42035557197 -79.435108029 6.0366387919 -0.058405057728 -79.286760179 5.9598384404 -0.79259672343 
-79.36199593 6.698174579 -1.0719553519 -79.478322106 6.2226497614 -1.4581738908 -79.783954083 5.5624959117 0.26487173103 
-80.015845442 6.2461216803 0.44601466531 -79.886729603 4.9589374266 0.019453811005 -79.779622952 6.8202333363 0.038831869665 
-80.350519157 7.2004629735 0.21295923131 -79.497100112 5.3903697703 -0.40622022404 -79.884040374 4.8706576629 -0.69832916624 
-79.62538852 7.2041961175 -0.70953418556 -80.082097895 7.5229687743 -0.3545424312 -80.481057667 7.9992508756 -0.65628252384 
-79.621522252 5.4407335902 -1.1307370153 -80.165863688 5.0168530783 -1.4008689695 -79.950669359 7.7175535883 -1.179796676 
-79.840070313 5.7138097268 -1.7208012551 -79.638126642 7.0944285723 -1.5529132384 -80.396782 8.2275276519 -1.4570492618 
-79.820610718 6.492169782 -2.0128800287 -79.949653925 7.5734432188 -1.9502667984 -80.295670512 8.1359063575 -2.1771019284 
-80.289036042 5.9780596417 -2.2869690935 -80.086955818 6.9877306123 -2.3978927588 -80.314379955 7.6563511403 -2.6650030343 
-80.384171909 5.495247615 0.62523059719 -80.774452596 6.0362042215 0.77553463145 -80.377574203 4.8741979745 0.46120997913 
-80.613032136 4.3184891815 0.28987561236 -80.565817462 6.6826928893 0.58317255294 -81.062684342 7.3546430781 0.53379653715 
-80.268840625 4.4317957138 -0.25220072453 -80.787374253 7.7870843486 0.019616088012 -80.830435151 4.0181481373 -0.25504685191 
-81.276249034 8.2458227875 -0.17833896325 -80.415324971 4.4761457049 -0.94626045187 -80.948666482 8.4204906464 -0.88391504246 
-80.875439324 4.6046424792 -1.4967526636 -80.978118948 8.6856166244 -1.5148342102 -80.783530107 5.1171841254 -1.947556814 
-80.357979516 5.4450659212 -1.9744706527 -80.719968377 8.665486619 -2.200727377 -81.046011136 5.603885897 -2.4597952405 
-80.514888673 6.3982945667 -2.673309878 -80.622325024 8.3623686943 -2.9461551323 -81.046969653 9.0375713199 -2.7495207838 
-80.589459908 7.0004735792 -2.9514182669 -80.756713284 7.6082467282 -3.2736346939 -81.084720014 8.8157862337 -3.4567422858 
-81.056071952 8.1840597547 -3.6106146698 -81.014573424 4.7985236932 0.71649885962 -81.183510345 5.3994442788 0.84519960879 
-81.583841032 5.959012112 0.93110059774 -81.234220926 6.682423264 0.81327660514 -81.808226151 7.3108093911 0.82923281806 
-81.207518788 4.2273048674 0.50149998907 -81.624905572 7.9450098121 0.44668121923 -81.468304188 3.8452824869 0.028257589635 
-81.482922659 3.817723822 -0.67831247077 -81.616827382 8.650870428 -0.5962219863 -80.9539509 4.1263122334 -0.91176081554 
-81.664442355 8.931009495 -1.2292026538 -81.458843875 4.2097879069 -1.3630462636 -81.395010557 4.9830784724 -2.0554680213 
-81.37455888 9.0577331996 -1.9969274746 -81.954246703 9.4319728595 -2.296643959 -81.626124388 9.43540874 -2.8336852979 
-81.108076525 6.1324242955 -2.8807788599 -81.645578226 6.2869875018 -3.1798948375 -81.134330734 6.8526501251 -3.2809115153 
-81.519599965 9.3101674734 -3.5283137779 -81.740134049 6.913222339 -3.5466047582 -81.395855499 7.5110816022 -3.6721889634 
-81.756649669 8.0147279772 -3.9680658005 -81.680783681 8.6796549109 -4.022599354 -81.718702693 4.7660446796 0.77365286184 
-82.067034761 5.3116905513 0.90340821738 -82.387569576 5.9248329892 1.0085911223 -81.921207673 6.6225884781 0.97343958988 
-82.439332558 7.606104861 0.92314333949 -82.498767872 8.2147011872 0.65637595635 -81.972402304 4.1872420077 0.47900371206 
-82.052422696 8.5119652814 0.091082962485 -82.232907993 3.7775119221 -0.020758634531 -82.692446223 8.8596471947 0.064259618695 
-82.172562218 3.6274366449 -0.65697177287 -82.255934166 8.942322269 -0.53299872549 -82.105373741 3.8616549168 -1.3053419334 
-82.450561757 9.2368191161 -1.0950711676 -82.107406786 9.2881581343 -1.6728314261 -81.83954466 4.4802786443 -1.7752116281 
-82.696073391 9.6053298661 -1.9135388545 -82.107560991 4.9093524988 -2.2281691194 -81.762678766 5.4998596068 -2.6151360728 
-82.503935707 9.7674326845 -2.6380333596 -82.139422891 5.8938449503 -3.0453333523 -82.12604232 9.7304656024 -3.2940204249 
-82.316139102 6.5886342055 -3.5288546941 -82.027909622 9.3227170486 -4.0104240281 -82.548387932 9.7754595843 -3.865801982 
-82.156077645 7.3411596221 -3.8517818111 -82.421764107 7.9770585475 -4.1590009122 -82.438277429 8.6618515338 -4.3098149009 
-82.662445923 9.3417034136 -4.329905909 -82.557438585 6.6588869753 1.076373989 -83.045469483 5.9529366058 1.0155639815 
-82.957724648 7.1362871587 1.1390169808 -82.522763755 4.6794202021 0.65637187676 -82.856777332 5.2758338355 0.83919604023 
-83.305336905 7.702408861 1.1388535135 -83.409936786 8.2588693474 0.9940030302 -83.111249718 8.6733685043 0.55305979239 
-82.826453876 4.1230858271 0.25722075992 -83.382454805 9.1646141572 0.084839083874 -82.841575517 3.5610160042 -0.42972782952 
-82.992948614 9.2738080026 -0.521115319 -82.780686781 3.4330277042 -1.1150765712 -83.055505434 9.5239948234 -1.2233541891 
-82.875697829 3.6966394122 -1.6854323568 -82.465304281 4.2112781829 -1.9000776569 -83.54873963 9.831602931 -1.6735730862 
-82.798637197 4.7677629199 -2.4295399545 -83.263613088 9.9069981142 -2.2330792758 -82.429150659 5.3055803247 -2.6714142902 
-83.253339796 10.063088198 -2.8066534997 -82.913220418 5.4577527493 -2.9333341788 -82.84782753 10.017938192 -3.2897535658 
-82.740358492 6.0564207785 -3.3047398009 -83.019537885 6.5735850805 -3.6831156954 -83.238139645 10.066756812 -3.8992737363 
-82.797642391 7.3052484971 -4.0022398523 -83.074168731 8.1475218114 -4.4066619283 -83.258061892 9.7077787622 -4.4052137058 
-83.114325753 8.9395935196 -4.5617042858 -81.061446293 -12.78549624 -5.8129914376 -81.335745663 -13.26435759 -5.7233216098 
-81.030678206 -12.211796291 -5.7524903725 -80.815119703 -11.654905975 -5.9820397745 -81.2471024 -11.468886168 -5.5213552889 
-81.535363044 -12.095422879 -5.3675985101 -80.962721548 -10.94444365 -5.9658175938 -81.432005678 -10.819183201 -5.4409234647 
-81.311081892 -10.267770768 -6.0020082592 -81.275044743 -13.844805572 -6.1034749961 -80.91306992 -13.296762388 -6.3768193698 
-80.685902843 -12.243886212 -6.3819766842 -80.602790572 -11.470782266 -6.5425352923 -81.026672149 -13.918010369 -6.7873824684 
-80.729889355 -12.760171603 -6.7116578812 -80.917602785 -10.736151189 -6.6268447163 -81.463493442 -10.263886956 -6.6871547839 
-80.824102737 -13.349832607 -7.1863323079 -80.633752698 -12.023029298 -7.1088206054 -80.764100576 -11.241229859 -7.1425459227 
-81.039593548 -14.103183447 -7.4686444622 -80.728340311 -12.644436628 -7.3977707091 -81.256362021 -10.683943496 -7.3706764736 
-80.917180996 -13.607399378 -7.8655457511 -80.842258976 -13.006933195 -7.9069768791 -80.819119619 -12.142811752 -7.8706389256 
-80.864774461 -11.516044349 -7.6972175972 -81.257222631 -11.079211966 -8.0116795768 -81.197457977 -14.008611518 -8.2555772734 
-80.964151867 -12.550347889 -8.3446588383 -81.105958107 -13.325102103 -8.5605388753 -81.165978162 -11.796790301 -8.4415185544 
-81.329806437 -12.54589603 -8.7774114855 -83.405681112 6.4925791017 1.1307983251 -83.681005134 7.1122422763 1.2318571064 
-83.491349104 5.3388185499 0.74444344497 -83.769940738 5.8424864108 0.88568785277 -83.751982919 8.8820792331 0.70000171908 
-83.334285878 4.6937626591 0.46892585932 -84.066681782 9.3288823437 0.34910768869 -83.389107016 3.8682825569 -0.13623236832 
-83.815526914 4.3614462634 0.096877030875 -83.72688552 9.5254551334 -0.42003813083 -83.502900036 3.4431304405 -0.73918127338 
-83.565327271 3.3416155999 -1.4094742261 -83.747671165 9.7292448392 -1.083902306 -83.549587167 3.648134475 -1.9945023849 
-83.116941228 4.1969059835 -2.2090149236 -84.011751428 10.136630847 -2.2460930038 -83.481235402 4.716582096 -2.649197924 
-83.557038023 5.2905727913 -3.0012607929 -84.035870256 10.288276921 -2.9171908091 -83.41159254 5.9363379645 -3.3655199161 
-83.697070404 10.252368791 -3.4600823425 -83.909108155 6.4085015079 -3.8233062211 -83.456158024 6.9214916325 -3.9857187847 
-83.944712563 10.121314512 -4.2501429008 -83.469401563 7.5270161504 -4.2845704063 -82.062752193 -10.117006029 -4.790662844 
-82.227201176 -9.4417801918 -4.5288524874 -82.379019872 -9.0908639889 -5.0777939359 -83.844032939 8.0045183614 -4.5842653021 
-83.690621714 8.6688941579 -4.7091132225 -83.780981672 9.421695403 -4.7276049365 -81.877190234 -11.459354136 -5.1325940396 
-82.00415389 -10.813236927 -5.00273175 -81.652584967 -10.173286915 -5.3619494758 -81.955694643 -9.5379114823 -5.2896326549 
-81.896571592 -13.115476802 -5.3522440184 -81.79355362 -13.710270097 -5.5817618663 -81.863431661 -12.621029354 -5.2516890005 
-82.169948809 -12.051775712 -5.0708113883 -81.745970685 -14.300592601 -5.8859218275 -81.866612793 -9.8160276363 -5.9881814644 
-82.549404423 -9.5475079024 -5.7366544268 -81.368971123 -14.427827263 -6.4995720374 -81.792913354 -14.859743543 -6.209930509 
-81.64404797 -15.113104479 -6.7261642035 -82.370566501 -10.077866148 -6.3844694473 -82.05709809 -10.377305182 -6.9451577242 
-81.321097229 -14.663377409 -7.1602913087 -81.683504401 -15.307360521 -7.3110531311 -82.090269512 -10.695444322 -7.4825707265 
-81.820864373 -15.17328632 -7.9541632388 -81.386866132 -14.658076739 -7.8448282676 -81.897208884 -10.972078438 -8.0244349883 
-81.639805322 -14.42683431 -8.4906470455 -81.747565649 -11.461139037 -8.4872230105 -81.745374266 -13.82169442 -8.8650785962 
-81.860231374 -12.200463987 -8.8521726021 -82.239373048 -11.767685078 -8.4442726386 -81.711421525 -13.10825992 -8.9478989516 
-84.238062699 6.781382539 1.1702264101 -84.230649935 6.2297093488 0.96041150725 -84.191349153 7.5210387328 1.3392944901 
-84.247944598 8.1139697571 1.3515906428 -84.139177179 8.7266102809 1.0779742092 -84.692832553 8.8184385578 1.4346444019 
-84.647860375 9.3239723127 0.95372046674 -84.46125348 5.6717721121 0.61071436878 -84.015728196 5.0730993346 0.46133282524 
[...]
POINT_DATA 3000
SCALARS labels vtktypeint64
LOOKUP_TABLE default
106 106 106 106 106 106 106 106 106 
106 106 106 106 106 106 106 106 106 
106 106 106 106 106 106 106 106 106 
106 106 106 106 106 106 106 106 106 
106 106 106 106 106 106 106 106 106 
106 106 106 106 106 106 106 106 106 
106 106 106 106 106 106 106 106 106 
106 106 106 106 106 106 106 106 106 
106 106 106 106 106 106 106 106 106 
106 106 106 106 106 106 106 106 106 
106 106 106 106 106 106 106 106 106 
106 106 106 106 106 106 106 106 106 
106 106 106 106 106 106 106 106 106 
106 106 106 106 106 106 106 106 106 
106 106 106 106 106 106 106 106 106 
106 104 104 104 104 104 104 104 104 
104 104 104 104 104 104 104 104 104 
104 104 104 104 104 104 104 104 104 
104 104 104 104 104 104 104 106 106 
106 106 106 106 106 106 106 106 106 
106 106 106 106 106 106 106 106 106 
106 106 106 106 106 104 104 104 106 
106 106 104 104 104 104 104 104 104 
104 104 104 104 104 104 104 104 104 
104 104 104 104 104 104 104 104 104 
104 104 104 106 106 106 106 106 106 
106 106 106 106 106 106 106 106 106 
106 106 106 106 106 106 106 106 106 
106 106 104 104 104 106 106 106 104 
104 106 104 104 104 106 106 104 104 
104 104 104 104 104 104 104 104 104 
104 104 104 104 104 104 104 104 104 
104 104 106 106 106 106 106 106 106 
106 106 106 106 106 106 106 106 106 
106 106 106 106 106 106 106 106 106 
106 106 106 106 106 106 104 104 106 
104 104 106 106 104 104 106 106 104 
104 104 106 106 106 104 104 104 104 
106 104 104 104 104 104 104 104 104 
104 104 104 104 104 104 104 104 104 
104 106 106 106 106 106 106 106 106 
106 106 106 106 106 106 106 106 106 
106 106 106 106 106 106 106 106 106 
106 104 104 104 104 106 106 104 104 
106 104 104 104 106 106 104 104 104 
106 106 106 104 104 104 104 106 106 
104 104 106 104 104 104 104 104 104 
104 104 104 104 104 104 104 106 106 
106 106 106 106 106 106 106 106 106 
106 106 106 106 106 106 106 106 106 
106 106 106 106 106 106 104 104 104 
104 106 104 104 104 106 106 106 104 
104 104 104 106 104 104 104 104 106 
104 104 104 106 106 104 106 106 106 
104 104 104 104 104 104 104 104 104 
104 104 104 104 106 106 106 106 106 
106 106 106 106 106 106 106 106 106 
106 106 106 106 106 106 106 106 106 
106 106 106 106 106 106 106 106 104 
104 104 104 106 106 104 104 104 104 
104 106 106 104 104 104 106 106 104 
106 106 104 104 106 106 106 106 104 
104 104 104 104 104 104 104 104 104 
104 106 106 106 106 106 106 106 106 
106 106 106 106 106 106 106 106 106 
106 106 106 106 106 106 106 106 106 
106 106 104 104 104 104 104 106 104 
104 104 104 104 104 104 106 106 104 
104 106 106 104 106 106 106 104 104 
106 104 106 106 106 104 104 106 106 
104 104 104 104 104 104 104 104 104 
104 104 104 104 106 106 106 106 106 
106 106 106 106 106 106 106 106 106 
106 106 106 106 106 106 106 106 106 
106 106 106 106 104 104 104 104 104 
104 106 106 104 104 104 104 104 104 
104 106 104 104 106 104 106 106 104 
104 106 106 106 104 106 106 106 104 
104 104 104 104 104 104 104 104 104 
104 106 106 106 106 106 106 106 106 
106 106 106 106 106 106 106 106 106 
106 106 106 106 106 106 106 106 104 
104 104 104 104 104 104 104 104 104 
104 104 106 106 104 104 106 106 106 
106 104 104 106 106 104 106 106 104 
104 106 106 106 104 104 104 104 104 
104 104 104 104 104 104 104 106 106 
106 106 106 106 106 106 106 106 106 
106 106 106 106 106 106 106 106 106 
106 106 106 104 104 104 104 104 104 
106 106 104 104 104 104 104 104 104 
104 104 106 106 106 106 104 104 106 
106 104 106 106 106 104 106 106 104 
104 106 104 104 104 104 104 104 104 
104 104 104 104 106 106 106 106 106 
106 106 106 106 106 106 106 106 106 
106 106 106 106 106 106 106 106 106 
106 106 104 104 104 104 104 106 104 
104 104 104 104 104 104 106 104 106 
106 104 106 106 106 104 104 106 106 
106 106 104 104 106 106 106 106 104 
104 104 104 104 104 104 104 104 104 
104 104 104 104 106 106 106 106 106 
106 106 106 106 106 106 106 106 106 
106 106 106 106 106 106 106 106 106 
106 106 104 104 104 104 104 106 106 
104 104 104 104 104 104 104 104 106 
104 104 106 104 104 106 106 104 106 
106 106 106 104 106 106 106 104 104 
106 104 104 104 104 104 104 104 104 
104 106 106 106 106 106 106 106 106 
106 106 106 106 106 106 106 106 106 
106 106 106 106 106 106 106 104 104 
104 104 104 104 104 104 104 106 106 
104 104 104 104 104 104 104 106 104 
106 106 106 104 106 106 106 104 104 
106 106 106 104 106 106 106 104 104 
104 104 104 104 104 104 104 104 104 
106 106 106 106 106 106 106 106 106 
106 106 106 106 106 106 106 106 106 
106 106 104 104 104 104 104 104 104 
104 104 104 106 106 104 104 104 106 
104 104 106 104 104 106 104 106 106 
104 104 106 106 106 104 106 106 104 
104 106 106 106 106 104 104 104 104 
104 104 104 104 104 104 104 104 104 
104 106 106 106 106 106 106 106 106 
106 106 106 106 106 106 106 106 106 
106 106 106 106 104 104 104 104 106 
106 104 104 104 104 104 104 105 104 
104 104 104 106 104 104 105 106 104 
104 104 106 104 106 106 106 104 104 
104 106 106 106 106 106 104 104 106 
106 106 104 104 106 104 104 104 104 
104 104 104 104 104 104 104 106 106 
106 106 106 106 106 106 106 106 106 
106 106 106 106 106 106 106 106 104 
104 104 104 104 106 106 104 104 104 
105 104 104 104 105 104 104 104 106 
104 104 105 106 104 106 104 104 106 
106 106 106 106 104 104 106 106 106 
104 104 106 104 104 104 104 104 104 
104 104 104 104 104 0 104 106 106 
106 106 106 106 106 106 106 106 106 
106 106 106 106 106 106 106 106 104 
104 104 104 105 104 104 105 106 104 
104 104 105 104 106 104 104 104 105 
104 105 106 104 106 106 104 104 106 
106 106 104 106 106 106 104 104 106 
106 106 104 104 104 104 104 104 104 
104 104 104 104 106 106 106 106 106 
106 106 106 106 106 106 106 106 106 
106 106 106 106 106 106 105 104 104 
104 104 104 104 104 105 105 106 104 
104 104 105 106 104 105 104 104 104 
104 105 106 104 104 105 104 105 106 
104 104 104 106 106 106 106 104 104 
106 106 104 104 106 106 104 104 104 
104 104 104 104 104 104 104 104 104 
106 106 106 106 106 106 106 106 106 
106 106 106 106 106 105 104 104 104 
105 106 104 104 104 104 105 104 104 
104 105 106 104 105 106 104 104 104 
105 105 104 104 104 105 106 104 104 
105 104 105 105 106 104 106 106 104 
104 106 106 106 104 104 106 106 104 
104 104 104 104 104 104 104 104 104 
106 106 106 106 106 106 106 106 106 
106 106 106 106 106 105 106 104 104 
104 105 106 104 104 104 105 104 104 
105 105 104 104 104 105 106 104 104 
105 106 104 104 104 105 105 106 105 
105 104 106 104 105 105 105 106 104 
105 105 106 106 106 104 104 106 106 
104 104 104 104 104 104 104 104 104 
104 104 104 106 106 106 106 106 106 
106 106 106 106 106 106 106 105 105 
106 104 104 104 104 104 105 104 104 
104 105 106 104 104 105 104 104 104 
105 106 104 104 105 106 104 105 105 
105 105 105 105 105 106 104 105 105 
105 105 105 105 106 104 105 106 106 
104 105 104 106 106 106 106 104 104 
104 104 3 104 104 104 104 104 104 
104 106 106 106 106 106 106 106 106 
105 105 106 105 105 106 104 104 105 
106 104 104 104 105 104 104 105 106 
104 104 104 104 105 106 104 104 104 
105 104 104 105 105 106 105 105 105 
104 105 105 105 106 105 105 105 105 
106 104 105 105 105 106 105 105 105 
105 106 104 105 106 106 104 104 104 
104 104 104 104 104 104 104 104 104 
106 106 106 106 106 106 105 105 106 
105 106 105 104 104 104 104 105 106 
104 104 104 105 105 104 105 106 104 
104 104 105 106 104 105 105 104 104 
105 105 105 105 105 105 106 105 105 
105 105 105 105 105 106 104 105 105 
105 105 105 105 105 105 106 104 105 
105 105 106 105 105 105 105 105 106 
104 104 105 105 105 105 106 106 104 
104 104 104 104 104 104 104 104 104 
106 106 106 106 106 105 106 105 106 
105 106 105 105 104 104 104 104 105 
106 104 104 104 105 104 104 104 105 
105 105 106 104 104 105 106 104 105 
105 105 105 106 105 105 105 105 105 
105 105 104 105 105 105 105 105 105 
106 105 106 104 105 105 105 105 105 
105 105 105 105 105 106 105 105 105 
105 105 106 104 104 105 105 105 105 
104 105 104 104 104 104 104 104 104 
105 106 105 106 105 105 106 105 105 
106 105 106 104 104 104 104 104 105 
104 104 105 105 106 104 104 104 105 
105 105 105 105 106 105 105 105 105 
105 105 106 104 105 105 105 105 105 
105 105 105 105 105 105 105 106 105 
105 105 106 104 105 105 105 105 105 
105 105 105 106 104 105 105 105 105 
105 105 105 105 104 105 105 105 105 
105 105 105 105 104 105 105 105 105 
105 104 105 105 104 104 104 104 104 
105 105 106 105 106 105 106 105 105 
106 105 105 105 106 104 104 104 104 
104 104 105 105 106 104 104 104 105 
105 104 105 105 105 106 105 105 105 
105 105 104 105 105 105 105 105 105 
105 105 105 105 105 105 105 105 105 
106 104 104 105 104 105 105 105 105 
105 105 105 105 105 105 105 105 105 
105 105 105 104 105 105 105 105 105 
105 104 105 105 105 105 105 105 104 
105 105 104 104 104 105 105 105 105 
105 105 105 105 105 105 105 105 104 
104 104 105 105 104 104 104 105 105 
104 104 105 105 105 105 105 104 105 
105 105 105 105 104 105 105 105 105 
105 105 105 105 105 105 105 105 105 
105 105 104 105 104 105 104 105 105 
105 105 105 105 105 105 105 105 105 
105 105 105 105 105 104 105 105 105 
105 105 105 105 104 105 105 105 105 
105 104 104 104 105 105 104 105 105 
105 105 105 105 105 105 105 105 105 
105 105 104 104 104 104 104 104 105 
105 104 105 105 105 105 104 105 105 
105 105 105 105 105 105 105 105 105 
105 104 105 105 105 105 105 105 105 
105 105 104 104 105 104 104 105 105 
105 105 105 105 105 105 105 105 105 
105 105 105 105 104 105 105 105 105 
105 105 104 104 105 105 105 105 105 
105 104 104 105 105 105 105 105 105 
105 105 105 105 105 105 105 104 104 
104 105 105 104 104 105 105 105 105 
105 105 105 105 105 105 104 105 105 
105 105 105 105 105 105 105 105 105 
105 105 105 105 105 105 104 105 105 
104 105 104 105 104 105 105 105 105 
105 105 105 105 105 105 105 105 105 
104 105 105 105 105 105 105 105 105 
105 105 105 104 104 104 105 105 105 
105 105 105 105 105 105 105 105 105 
105 105 105 105 105 105 105 105 105 
105 105 104 104 104 105 105 105 105 
105 105 104 105 105 105 105 105 104 
105 105 105 105 105 105 105 105 105 
105 105 105 105 105 105 105 104 105 
104 104 105 104 104 105 104 105 104 
105 105 105 105 105 105 105 105 105 
105 105 104 105 105 105 105 105 105 
105 105 105 105 105 105 105 105 105 
105 105 105 105 105 105 105 105 105 
105 105 105 105 105 105 105 105 105 
105 105 105 105 105 105 105 105 105 
104 105 105 105 105 105 105 105 105 
104 105 105 105 105 105 105 105 104 
105 105 104 105 104 104 105 105 104 
105 105 105 105 105 105 105 105 105 
105 105 105 105 105 105 105 105 105 
105 105 105 105 105 105 105 105 105 
105 105 105 105 105 105 105 105 105 
105 105 105 105 105 105 105 105 105 
105 105 105 105 105 105 105 105 105 
105 105 105 105 105 104 105 105 105 
105 105 105 105 105 105 105 105 105 
105 105 104 105 105 104 105 105 105 
104 105 105 105 105 105 105 105 105 
105 105 105 105 105 105 105 105 105 
105 105 105 105 105 105 105 105 105 
105 105 105 105 105 105 105 105 105 
105 105 105 105 105 105 105 105 105 
105 105 105 105 105 105 105 105 105 
105 105 105 105 105 105 105 105 105 
105 105 105 105 105 105 105 105 105 
105 105 105 105 105 105 105 105 105 
105 105 105 105 105 105 105 105 105 
105 105 105 105 105 105 105 105 105 
105 105 105 105 105 105 105 105 105 
105 105 105 105 105 105 105 105 105 
105 105 105 105 105 105 105 105 105 
105 105 105 105 105 105 105 105 105 
105 105 105 105 105 105 105 105 105 
105 105 105 105 105 105 105 105 105 
105 105 105 105 105 105 105 105 105 
105 105 105 105 105 105 105 105 105 
105 105 105 105 105 105 105 105 105 
105 105 105 105 105 105 105 105 105 
105 105 105 105 105 105 105 105 105 
105 105 105 105 105 105 105 105 105 
105 105 105 105 105 105 105 105 105 
105 105 105 105 105 105 105 105 105 
105 105 105 105 105 105 105 105 105 
105 105 105 105 105 105 105 105 105 
105 105 105 105 105 105 105 105 105 
105 105 105 105 105 105 105 105 105 
105 105 105 105 105 105 105 105 105 
105 105 105 105 105 105 105 105 105 
105 105 105 105 105 105 105 105 105 
105 105 105 105 105 105 105 105 105 
105 105 105 105 105 105 105 105 105 
105 105 105 105 105 105 105 105 105 
105 105 105 105 105 105 105 105 105 
105 105 105 105 105 105 105 105 105 
105 105 105 105 105 105 105 105 105 
105 105 105 105 105 105 105 105 105 
105 105 105 105 105 105 105 105 105 
105 105 105 105 105 105 105 105 105 
105 105 105 105 105 105 105 105 105 
105 105 105 105 105 105 105 105 105 
105 105 105 105 105 105 105 105 105 
105 105 105 
