# vtk DataFile Version 5.1
vtk output
ASCII
DATASET POLYDATA
POINTS 3000 double
-38.052223762 -7.2377938652 -4.4197434703 -38.061385564 -6.5995992701 -4.4757123307 -38.108079921 -5.9514074079 -4.4859667372 
-38.148344642 -5.3107269228 -4.4985115684 -38.265671502 -4.6847831767 -4.3149647457 -38.138692845 -4.1639504997 -4.667174702 
-38.477146518 -3.8566075793 -4.0886246329 -38.210159857 -3.4442810234 -4.5821386705 -38.46822655 -2.9298479533 -4.1352494279 
-38.291405487 -2.4798613576 -4.6398189729 -38.590233908 -2.0351762634 -4.1968350392 -38.416234071 -1.5330274831 -4.6103539537 
-38.578611031 -0.80891251164 -4.4310478194 -38.939755857 -1.2749717041 -4.0839998898 -38.538793895 -0.18019228621 -4.7033819933 
-38.887221146 0.26685332725 -4.3355794646 -37.862047928 -8.290705813 -4.9758854286 -38.051505316 -7.8768030041 -4.4439866861 
-37.807856945 -7.543916152 -5.0594263967 -37.838194106 -6.8045679854 -5.105744134 -38.14346831 -3.0404735278 -5.1451084341 
-38.574723118 0.49050581838 -5.0894311493 -38.966129204 0.94097806782 -4.5857464992 -38.037500527 -8.9289789995 -4.885978429 
-37.895334243 -6.0080564739 -5.2296940772 -37.960712615 -5.2648215765 -5.2388740974 -38.01988488 -4.5629726118 -5.2272498499 
-38.077835395 -3.7728508594 -5.2857818722 -38.199178425 -2.3341864499 -5.2741243336 -38.26490861 -1.6368645587 -5.2640384737 
-38.348332601 -0.87776076601 -5.1448468581 -38.402604698 -0.13046195041 -5.4424337578 -38.806872445 1.1864812048 -5.256407428 
-37.890423311 -8.9058235649 -5.6088117469 -37.761881654 -8.1531725798 -5.6357187489 -37.759041167 -7.3961037713 -5.7465287861 
-37.814504853 -6.6219842434 -5.7979471112 -38.553782634 0.73009214802 -5.8414621019 -37.887067005 -5.9540888299 -5.9643905505 
-37.960353375 -5.2644851435 -5.9499670837 -38.032929237 -4.5469803219 -5.9399974633 -38.093051753 -3.8045839098 -5.9398076894 
-38.134698785 -3.0795875608 -5.9090044255 -38.183873603 -2.3565528626 -5.9732400753 -38.239001595 -1.6409580164 -5.9446400514 
-38.30651135 -0.8574726355 -5.8898040378 -38.39334967 -0.05915400597 -6.1567353747 -38.913336561 1.5729661318 -5.8483022302 
-37.848273651 -8.5858868478 -6.2786315527 -37.78843616 -7.9274894666 -6.3688715783 -37.814465552 -7.1031057181 -6.3804051212 
-37.910072791 -6.3566150879 -6.5692903158 -38.17813559 -4.1861578907 -6.5631835227 -38.292847079 -1.2844556498 -6.5421846398 
-38.519246594 0.56135146918 -6.5523831185 -38.73844905 1.2311686593 -6.524805996 -38.01399656 -9.0124398155 -6.6496972137 
-37.89662078 -7.5032020404 -6.928649208 -38.033792811 -5.6170402886 -6.6643708709 -38.116125483 -4.9024076022 -6.6010571573 
-38.224054932 -3.4599323438 -6.6351468436 -38.230153831 -2.7409425769 -6.6667632023 -38.259730189 -1.9975172488 -6.6984415123 
-38.368845723 -0.58692517517 -6.6760380237 -37.98298301 -8.2462119762 -7.1145202572 -38.016966441 -6.7482039878 -7.1234278944 
-38.196439964 -5.9405753625 -7.3057665301 -38.322241297 -5.0154973852 -7.2172619006 -38.409357655 -4.1641315982 -7.2089657675 
-38.396376714 -1.2495044238 -7.1859739787 -38.492540055 0.052350520834 -7.0308192415 -38.686802227 0.79202049018 -7.2644959733 
-38.949896556 1.5232755492 -7.195324033 -38.123186406 -7.4302149016 -7.5434804627 -38.432193116 -3.3644553862 -7.3185590643 
-38.40301663 -2.6244258783 -7.3784780002 -38.424200926 -1.9461155098 -7.4324592111 -38.530977001 -0.5735369463 -7.4511733431 
-38.624478833 -1.3062850362 -7.8507818125 -38.727677984 0.19595183995 -7.7495220624 -38.797012941 -0.54174988617 -8.1045285514 
-38.674704465 -7.7521194561 -4.0303560178 -38.691080668 -7.0869104733 -4.0170223578 -38.603553612 -6.4147175578 -4.0848667577 
-38.794825253 -5.8240643496 -4.0031206333 -38.827812485 -5.1946854689 -3.9902226698 -38.92989554 -4.5098969748 -3.916824439 
-39.167427761 -3.7972406768 -3.8183763598 -39.037855569 -3.1593924515 -3.8348928885 -39.092146817 -2.4634126069 -3.8712104762 
-39.32738529 -1.7991038686 -3.873446718 -39.600994333 -1.0660000457 -3.9046503816 -39.156284167 -0.48353186007 -4.042203778 
-39.500552539 0.10503327431 -3.9575793406 -39.554971227 0.789464524 -4.0159109901 -38.375987942 -9.4897896827 -4.544918697 
-38.589470817 -9.0290510706 -4.198309686 -38.279005901 -8.4750328859 -4.3454990125 -38.912365321 -8.338470557 -4.0188642881 
-39.333793692 1.4340206212 -4.3555595001 -39.497953458 2.1193120767 -4.4621606464 -38.450522449 -10.09916909 -4.6750520435 
-38.715180835 -10.660586061 -4.6136246166 -39.143290741 1.8352712268 -5.0976235399 -39.402400736 2.5884007875 -5.0987207427 
-39.815879634 2.843083142 -4.3913679459 -39.692174102 3.2604744576 -5.0279557889 -38.506814946 -10.832117571 -5.1742440897 
-38.249322094 -10.172304268 -5.4383557014 -38.125659758 -9.5450872125 -5.2355910372 -39.237015186 2.3406988269 -5.7982035148 
-39.535947908 3.1765461005 -5.7848024004 -39.934822863 3.8689709778 -5.3701654829 -38.380566279 -10.759968799 -5.878905252 
-38.216196363 -10.143532049 -6.1415842655 -38.062105898 -9.4684921551 -6.0002018866 -38.524588484 -11.12858692 -6.4020908249 
-39.069648432 1.9350850182 -6.5082238127 -39.350318113 2.6987062857 -6.4917197631 -39.62798653 3.3653870344 -6.5558385444 
-39.94321649 3.9620641093 -6.1871030444 -38.318362992 -10.40771964 -6.760581038 -38.173768721 -9.6818609391 -6.7526644513 
-38.539233727 -10.955586553 -7.082930742 -39.283106736 2.3932492974 -7.1245682413 -39.625627296 3.1824721236 -7.3287169651 
-38.449098655 -10.408854048 -7.5402782 -38.279403184 -9.7802279659 -7.4118992713 -38.13713053 -9.0044303994 -7.2901009003 
-39.188103016 1.9294314891 -7.69511218 -38.275127232 -9.2275201685 -7.9175031697 -38.209755378 -8.4930258325 -7.8409739675 
-38.240211712 -7.8742439527 -7.9540099088 -38.275497267 -6.6917637429 -7.7890215407 -38.425770437 -6.1006451777 -8.0263857665 
-38.477168791 -5.3929174525 -7.8593550192 -38.56983683 -4.6131247028 -7.8348202567 -38.621639706 -3.8008189375 -7.8558979495 
-38.644468563 -2.8793369236 -7.9910759469 -38.944225197 1.0278230044 -7.8912411996 -39.469954641 2.6014685443 -7.8223801157 
-38.650146057 -10.536760327 -8.1866023278 -38.41217982 -9.7941476653 -8.1927056862 -38.365335469 -7.1756806949 -8.2789461418 
-38.798755619 -3.3551477834 -8.4564012229 -38.702049585 -2.1006234885 -8.1295639997 -39.206260295 1.6288765814 -8.2825024152 
-39.806463115 3.0928415771 -8.247562079 -38.655837092 -10.12488383 -8.7437393929 -38.331169792 -8.8262725057 -8.4633113751 
-38.369961489 -7.9830938039 -8.6152264275 -38.528362549 -6.4492156919 -8.6899630114 -38.614400146 -5.6522516283 -8.5855657413 
-38.699808459 -4.8252900812 -8.4850605754 -38.779442238 -4.0530559069 -8.4982110356 -38.918614479 -2.6625200181 -8.7267720092 
-38.897169004 -1.3012862818 -8.4969654244 -38.971715483 0.21485773462 -8.3749670344 -39.136211097 0.92874624847 -8.6269813666 
-39.512005461 2.3152086402 -8.5203831906 -38.486930165 -9.401586955 -8.9114813604 -38.457094767 -8.6416931976 -9.0994978654 
-38.49251583 -7.1926171942 -8.9277784607 -38.843566787 -5.1421521937 -9.0696801932 -38.991073706 -4.3175626813 -9.0979404291 
-39.011134646 -1.946405697 -8.8510814016 -39.05494001 -0.56034364343 -8.7877479923 -39.181244586 0.15005055964 -9.0238143188 
-39.388948483 1.6464581753 -8.969428338 -38.530076049 -7.951432782 -9.3009069635 -38.739604985 -6.5557893915 -9.4542280557 
-38.825865243 -5.8382361957 -9.3161477952 -39.074916001 -3.4349708198 -9.0841186923 -39.398687512 -2.6372859923 -9.2462228413 
-39.249397088 -1.2539530037 -9.2350784935 -39.356117624 0.8140519302 -9.307495896 -39.838266281 2.1036058998 -9.3963062964 
-38.809119623 -9.1792985476 -9.5559438255 -38.806806768 -8.4739453775 -9.7103617942 -38.640106738 -7.3376747862 -9.4936698928 
-39.28120946 -5.0105133234 -9.3540732942 -39.519259485 -1.9174843074 -9.3075901823 -39.448774553 -0.57648613863 -9.4414392447 
-39.624811001 0.11239766243 -9.5576494748 -39.696144633 1.357861677 -9.5795037335 -38.985465256 -7.8113998062 -9.8616633643 
-39.042863961 -7.1098940923 -9.8238737357 -39.560114056 -9.4988040762 -4.0203296817 -39.251864918 -8.8973773706 -4.0025475596 
-39.586879869 -8.0638985216 -4.0197053764 -39.417044306 -7.3515243108 -3.9751255126 -39.313486196 -6.5591493431 -3.9708272392 
-39.632894815 -5.9134661921 -3.9813434947 -39.597789838 -5.1711226592 -3.963563398 -39.69190435 -4.4295547858 -3.9337517501 
-39.905401678 -3.732508283 -3.9502808643 -39.792292434 -3.0489857357 -3.8878272095 -39.866313703 -2.357247193 -3.8944432292 
-40.110147168 -1.7566841086 -3.9319011001 -40.319177503 -1.0218685022 -3.9383458956 -40.067193836 -0.43525639944 -3.8875908055 
-40.296130024 0.16626622206 -3.8894161391 -40.273393066 0.84853960935 -3.8660424158 -39.979418561 1.5018731406 -3.9608365104 
-40.053704774 2.1971930547 -4.0056035022 -40.691884257 1.7793007618 -3.7842941695 -40.553474833 2.524817648 -3.8262034308 
-40.347909021 3.2644696199 -4.0171817514 -39.105308049 -11.078946845 -4.3495270933 -39.263744179 -10.384127232 -4.1001018295 
-38.96670554 -9.726391222 -4.1722559545 -40.077815025 3.7041489069 -4.5807696632 -40.523879403 4.0432117864 -4.0321012043 
-40.278582067 4.4613420464 -4.7338911722 -40.684971937 4.7121130921 -4.0881011949 -38.908026626 -11.486865989 -4.8606068394 
-40.764378146 5.2910590608 -4.4402702625 -40.530194776 5.1171019114 -5.137362592 -38.98321149 -11.984457138 -5.2928288575 
-39.299310957 -12.185329879 -4.7972089215 -38.667346521 -11.412910622 -5.6530174292 -40.207651595 4.4944828287 -5.604166882 
-38.937326875 -12.072765997 -5.8911224809 -40.546040751 5.1044454697 -5.9141290782 -39.133341374 -12.475747728 -6.3676070021 
-38.792025545 -11.777054394 -6.4222959637 -40.322503431 4.6585715272 -6.5124247761 -39.061324938 -12.272631197 -7.0221505729 
-38.774409051 -11.588710238 -7.0818606974 -39.972621774 3.9337249087 -6.968969234 -40.295586259 4.4885737006 -7.3754520039 
-40.651593434 5.1265183245 -7.1016631664 -39.016783626 -11.966162897 -7.6455524439 -38.740599283 -11.146714828 -7.7312367442 
[...]
POINT_DATA 3000
SCALARS labels vtktypeint64
LOOKUP_TABLE default
102 102 102 102 102 102 102 102 102 
102 102 102 102 102 102 102 102 102 
102 102 102 102 102 102 102 102 102 
102 102 102 102 102 102 102 102 102 
102 102 102 102 102 102 102 102 102 
102 102 102 102 102 102 102 102 102 
102 102 102 102 102 102 102 102 102 
102 102 102 102 102 102 102 102 102 
102 102 102 102 102 102 102 102 102 
102 102 102 102 102 102 102 102 102 
102 102 102 102 102 102 102 102 102 
102 102 102 102 102 102 102 102 102 
102 102 102 102 102 102 102 102 102 
102 102 102 102 102 102 102 102 102 
102 102 102 102 102 102 102 102 102 
102 102 102 102 102 102 102 102 102 
102 102 102 102 102 102 102 102 102 
102 102 102 102 102 102 102 102 102 
102 102 102 102 102 102 102 102 102 
102 102 102 102 102 102 102 102 102 
102 102 102 102 102 102 102 102 102 
102 102 102 102 102 102 102 102 102 
102 102 102 102 102 102 102 102 102 
102 102 102 102 102 102 102 102 102 
102 102 102 102 102 102 102 102 102 
102 102 102 102 102 102 102 102 102 
102 102 102 102 102 102 102 102 102 
102 102 102 102 102 102 102 102 102 
102 102 102 102 102 102 102 102 102 
102 102 102 102 102 102 102 102 102 
102 102 102 102 102 102 102 102 102 
102 102 102 102 102 102 102 102 102 
102 102 102 102 102 102 102 102 102 
102 102 102 102 102 102 102 102 102 
102 102 102 102 102 102 102 102 102 
102 102 102 102 102 102 102 102 102 
102 102 102 102 102 102 102 102 102 
102 102 102 102 102 102 102 102 102 
102 102 102 102 102 102 102 102 102 
102 102 102 102 102 102 102 102 102 
102 102 102 102 102 102 102 102 102 
102 102 102 102 102 102 102 102 102 
102 102 102 102 102 102 102 102 102 
102 102 102 102 102 102 102 102 102 
102 102 102 102 102 102 102 102 102 
102 102 102 102 102 2 102 102 2 
102 102 102 102 102 102 102 102 102 
102 102 102 102 102 2 102 102 102 
102 102 102 102 102 102 102 102 102 
102 102 102 102 102 102 102 102 102 
102 102 102 102 102 102 102 102 102 
102 102 102 102 102 102 102 102 102 
102 102 102 102 102 102 102 102 102 
102 102 102 102 102 102 102 102 102 
102 102 102 102 102 102 102 102 102 
102 102 102 102 102 2 102 102 102 
102 102 102 102 102 102 102 102 102 
102 102 102 102 102 102 102 102 102 
102 102 102 102 102 102 102 102 102 
102 102 102 102 102 102 102 102 102 
102 102 102 102 102 102 102 102 102 
102 102 102 102 102 102 102 102 102 
102 102 102 102 102 102 102 102 102 
102 102 102 102 102 102 103 102 102 
102 103 102 102 102 102 101 101 102 
102 102 102 102 102 102 102 102 2 
2 102 102 102 102 102 102 102 102 
102 102 102 102 102 102 102 102 102 
102 102 102 102 102 102 102 102 102 
102 102 102 102 102 102 102 102 102 
102 102 102 102 102 102 102 102 102 
102 102 103 102 102 102 102 102 102 
102 102 102 102 102 103 101 102 102 
102 102 102 102 102 102 102 103 101 
102 102 102 102 102 102 102 102 102 
102 102 101 101 103 101 103 103 101 
103 101 103 102 102 102 102 102 102 
102 102 102 101 102 2 2 102 102 
102 102 103 102 102 102 102 101 102 
102 102 102 102 102 103 102 102 102 
102 102 102 102 102 102 102 102 102 
102 102 102 102 102 103 102 103 101 
101 102 102 101 101 102 102 102 102 
102 103 102 102 102 102 101 101 102 
102 102 102 102 102 102 102 102 102 
103 102 102 102 102 102 102 102 101 
103 101 101 103 101 103 101 101 102 
102 102 102 102 102 102 102 102 102 
102 2 102 102 102 102 103 101 101 
102 102 102 102 102 102 102 102 103 
101 101 102 102 102 102 103 101 102 
102 102 102 102 102 102 102 102 103 
103 102 103 102 103 101 101 101 101 
102 101 101 102 102 102 103 102 102 
102 103 101 101 102 102 102 102 102 
101 102 102 102 102 102 102 102 102 
102 103 102 102 102 102 102 101 103 
103 101 101 101 102 102 102 102 102 
102 102 103 102 2 102 102 102 102 
102 102 102 101 102 102 102 102 103 
102 102 102 102 102 102 102 103 101 
102 102 102 102 101 102 102 102 103 
103 101 102 102 103 101 102 102 102 
102 103 103 102 102 103 103 102 103 
101 101 101 101 102 103 101 101 101 
102 103 102 102 102 102 101 101 102 
102 102 103 101 102 102 102 102 102 
102 102 102 103 101 102 102 102 102 
102 102 101 102 102 102 102 102 102 
102 102 103 101 102 102 102 102 102 
102 102 103 101 2 102 102 102 102 
102 102 102 102 103 101 102 102 102 
102 102 101 2 102 102 102 102 103 
101 102 102 102 102 101 102 103 103 
101 101 103 101 101 101 102 103 103 
103 103 102 102 103 102 103 101 101 
101 102 103 101 101 101 102 102 101 
101 101 102 103 101 102 102 102 102 
102 103 102 102 102 102 102 102 103 
101 102 102 102 103 102 102 102 102 
101 101 102 103 101 102 102 102 102 
102 103 103 101 102 102 102 102 102 
102 102 102 102 102 103 101 102 102 
102 102 102 102 101 102 102 102 103 
103 103 101 103 103 103 101 101 101 
101 101 101 103 103 103 103 103 102 
102 103 102 102 101 101 102 103 101 
101 101 102 101 101 102 103 101 101 
101 102 102 101 102 102 102 102 103 
102 102 102 102 102 103 101 102 102 
102 101 102 102 103 102 102 103 101 
102 102 102 102 103 102 102 102 102 
101 101 102 102 103 101 2 101 102 
102 103 101 101 103 103 103 103 101 
101 101 101 101 101 103 103 103 103 
103 102 103 103 101 102 103 101 101 
102 102 101 101 101 102 102 103 101 
101 102 102 101 101 102 102 103 101 
101 102 102 102 102 102 103 102 102 
102 101 102 102 102 101 101 102 102 
103 103 102 102 102 102 102 102 101 
102 102 102 102 103 101 101 102 102 
101 101 101 102 103 103 103 103 103 
101 101 101 101 103 101 101 103 103 
103 103 103 103 103 103 103 102 103 
101 101 101 102 101 101 101 102 103 
102 102 101 101 101 101 102 102 102 
101 101 102 102 103 103 101 101 102 
102 102 102 103 101 101 102 101 101 
102 102 102 103 102 102 102 103 101 
101 102 102 103 101 101 101 103 103 
103 101 101 2 103 103 103 101 103 
101 101 101 103 103 103 103 103 103 
103 103 101 101 103 103 101 101 101 
102 102 102 101 101 101 101 103 101 
101 101 102 101 102 102 101 101 101 
102 102 102 103 101 101 101 102 102 
101 102 102 101 101 103 102 101 101 
102 102 102 103 101 101 102 102 102 
103 101 101 102 102 103 103 101 103 
103 103 101 101 101 103 103 103 103 
101 101 101 101 103 103 103 103 103 
103 103 103 103 103 103 101 101 101 
103 101 101 101 103 101 101 102 102 
103 101 101 102 103 101 101 101 102 
101 102 103 101 101 102 102 101 102 
103 101 101 101 102 102 103 101 101 
102 102 101 101 101 102 102 102 103 
101 102 103 103 103 103 101 101 101 
103 103 103 103 101 101 103 103 101 
101 101 101 101 103 103 103 103 103 
103 103 103 103 101 101 103 101 101 
101 103 101 101 102 102 103 101 101 
102 103 101 102 101 101 102 103 101 
102 101 101 102 103 101 102 101 101 
102 101 101 102 102 103 101 101 102 
102 102 101 101 2 103 103 103 103 
101 103 103 103 103 101 101 101 103 
103 103 101 101 101 101 103 103 103 
103 103 103 103 103 103 103 101 101 
101 103 103 101 101 101 103 101 101 
103 102 101 101 102 103 101 101 102 
101 102 103 101 101 102 103 101 101 
103 101 102 101 102 102 103 101 101 
103 103 103 101 101 103 103 103 101 
101 101 101 103 103 103 101 103 103 
103 101 101 101 101 101 103 103 103 
103 103 103 103 103 103 103 101 101 
101 101 103 103 101 101 101 103 103 
103 101 101 103 103 101 101 103 103 
103 101 101 102 101 102 101 101 102 
103 101 102 101 103 101 101 102 101 
102 102 103 101 101 103 103 101 101 
103 103 103 103 101 101 2 103 103 
103 101 101 103 103 101 101 101 101 
103 103 103 103 103 103 103 101 101 
101 101 103 101 101 101 103 101 101 
103 101 103 101 101 101 103 102 103 
101 102 101 102 103 101 101 102 103 
101 101 101 102 101 102 103 101 101 
103 103 103 101 101 103 103 101 101 
103 103 103 101 101 103 103 101 101 
101 103 103 103 103 103 103 103 103 
103 103 101 101 101 101 103 103 101 
101 101 103 103 101 103 103 101 101 
103 101 101 103 101 101 103 101 102 
101 102 103 101 103 101 102 101 103 
103 103 101 101 101 103 103 101 2 
103 103 103 103 103 101 101 103 103 
103 101 101 101 103 103 101 101 103 
103 103 103 103 103 103 101 103 103 
101 101 101 101 103 103 101 101 103 
103 101 101 101 103 103 101 101 101 
103 103 103 101 101 102 103 101 101 
101 2 103 101 101 2 103 103 101 
101 103 103 103 103 101 101 103 103 
103 101 101 103 103 103 103 101 101 
103 103 101 101 101 103 103 103 103 
103 103 103 101 103 101 101 101 101 
103 103 101 103 103 101 101 103 103 
101 103 101 103 101 101 103 103 101 
101 103 103 101 103 101 103 101 103 
101 101 101 101 103 103 103 101 101 
103 103 103 103 101 101 101 103 103 
103 103 103 101 101 101 101 101 103 
103 103 103 103 103 103 101 101 103 
103 101 101 103 103 101 101 103 103 
101 1 101 101 103 101 101 103 103 
101 0 103 103 101 101 103 101 103 
101 103 103 101 101 101 101 103 103 
101 101 103 103 101 101 103 103 103 
101 103 103 103 103 101 103 103 103 
103 101 101 101 101 101 103 103 103 
103 103 103 101 101 101 103 101 101 
103 103 101 101 103 101 101 101 103 
103 101 103 101 101 101 103 103 103 
0 101 103 103 101 103 101 101 103 
101 103 101 101 103 103 103 101 101 
101 103 103 103 101 103 103 103 103 
103 101 101 103 103 103 101 101 101 
101 103 103 103 103 103 103 103 101 
101 101 101 103 101 101 103 103 103 
101 101 101 103 103 101 103 103 101 
101 103 103 103 101 101 103 103 103 
101 103 103 101 101 103 101 2 103 
101 103 103 101 101 103 103 103 103 
103 103 101 101 103 101 101 103 103 
103 103 103 101 101 103 103 103 103 
103 103 103 101 101 101 103 101 101 
101 103 103 101 101 103 103 101 101 
103 101 101 103 103 101 103 101 103 
103 101 101 103 103 103 101 101 101 
101 103 103 101 103 103 101 103 103 
103 103 103 103 101 101 103 103 103 
101 103 103 103 103 101 101 103 103 
103 103 103 103 103 103 101 101 103 
103 101 101 101 103 101 103 103 101 
103 101 103 103 101 103 103 103 101 
101 101 103 103 101 101 101 103 101 
103 101 101 103 103 103 103 103 103 
101 103 103 101 101 103 103 103 103 
103 103 103 103 103 103 103 103 103 
101 101 101 101 103 101 103 103 101 
101 103 101 103 103 103 101 0 103 
101 101 103 103 103 103 101 101 101 
103 103 101 103 101 101 103 101 103 
103 101 101 103 103 103 101 101 101 
103 103 103 103 101 101 103 103 103 
103 103 103 103 103 103 103 103 103 
103 103 103 101 101 101 101 103 101 
101 103 103 103 101 101 103 101 103 
103 103 0 101 101 103 103 103 101 
103 103 101 103 101 103 101 101 103 
103 103 101 103 103 103 103 101 103 
103 103 103 101 101 103 103 103 103 
103 103 103 103 103 103 103 103 103 
103 103 103 101 101 101 103 103 103 
101 101 101 101 103 103 103 103 101 
101 101 103 103 103 103 101 101 101 
103 101 101 103 103 101 103 103 103 
101 101 103 103 103 101 103 103 103 
101 103 103 101 103 103 103 103 103 
103 103 103 103 103 103 103 103 101 
101 101 101 103 101 101 101 101 101 
103 101 103 103 101 101 101 101 103 
103 103 101 101 101 103 103 103 101 
101 103 103 103 103 101 101 103 101 
101 103 103 103 101 103 103 103 103 
103 103 103 103 103 103 103 103 103 
103 103 101 101 101 103 101 101 103 
103 103 101 103 101 101 101 103 101 
103 103 101 103 101 101 103 103 103 
101 103 101 101 103 103 103 103 101 
101 103 103 103 101 101 103 103 101 
101 103 103 103 103 103 103 103 103 
103 103 103 103 103 103 103 103 103 
101 101 101 101 103 101 103 101 101 
103 103 101 101 101 103 103 103 101 
103 101 103 103 103 101 101 103 101 
103 103 101 103 103 103 101 101 103 
103 103 103 103 101 101 103 103 103 
103 103 103 103 103 103 103 103 103 
103 103 103 101 101 101 103 101 101 
103 101 103 103 101 101 103 103 101 
103 101 103 103 101 103 103 101 103 
103 101 101 103 101 103 103 103 101 
103 101 103 103 103 103 101 101 101 
101 103 103 103 103 103 103 103 103 
103 103 103 103 101 101 101 103 101 
101 103 103 101 101 101 103 103 101 
103 103 103 101 101 101 103 103 103 
101 101 103 103 101 103 103 103 101 
101 103 103 103 103 103 103 101 101 
101 103 101 101 101 101 103 103 103 
103 103 103 103 103 103 103 103 103 
103 103 103 103 101 101 101 101 103 
101 101 103 103 103 101 101 103 101 
101 103 103 103 101 103 101 101 103 
103 103 103 101 101 103 103 101 103 
101 101 101 101 101 101 101 101 103 
103 103 103 103 103 103 103 103 103 
103 103 103 103 103 101 101 101 101 
103 103 103 101 101 103 103 103 103 
103 103 101 103 103 103 103 103 101 
101 103 101 103 103 101 103 101 101 
101 101 101 101 101 101 101 101 103 
103 103 103 103 103 103 103 101 101 
101 101 101 101 101 101 101 101 101 
101 101 101 101 101 101 101 101 101 
101 101 101 101 101 101 101 101 101 
101 101 101 101 101 101 101 101 101 
101 101 101 101 101 101 101 101 101 
101 101 101 101 101 101 101 101 101 
101 101 101 
