# vtk DataFile Version 4.2
vtk output
ASCII
DATASET POLYDATA
POINTS 19999 double
-27.311624011 4.4923265752 7.5618211089 -27.720958818 3.9207190395 8.1174450839 -27.647323402 4.8557627338 8.4418035565 
-27.316492093 5.3287411755 7.5570964618 -27.357416104 3.6949984578 7.1065942846 -27.534996347 2.995614467 6.6420126942 
-27.13858724 4.5163422896 6.6419700256 -27.239183164 5.4989179215 6.5998813912 -27.205670716 3.7181828837 6.0308975481 
-27.099000328 4.8057549382 5.7523050882 -27.752229158 2.6767364047 5.8304313379 -27.226831855 5.8072700443 5.5868141051 
-27.465827894 6.4243939113 6.337003478 -27.397559751 3.2125043088 5.2520553511 -27.166692006 4.1560289308 5.0486600625 
-27.170680412 5.1631356926 4.7738069815 -27.381707718 6.1161672453 4.6426217806 -27.500068536 3.4510529757 4.4219337624 
-27.357982634 4.4588197247 4.1049824354 -27.506899416 5.4973995194 3.8016363843 -27.749212016 3.618769053 3.5795885168 
-28.325713994 0.89689182115 9.5786143934 -28.242525412 1.7386970644 9.8189628094 -28.674206173 1.0219672365 10.502253608 
-28.554721375 2.0693309139 10.648963323 -28.28927631 2.6269677385 9.9967125045 -27.776877344 6.1036814317 9.4254565803 
-28.160901257 5.8411692205 10.302724399 -27.988759454 6.8038269854 10.242300584 -27.680311882 7.0680501007 9.4755132018 
-27.888618313 7.8945272642 10.035932396 -28.646058372 0.13217540428 9.7279577307 -28.085960746 2.4128396363 9.0912267083 
-28.248761414 3.3940624477 9.5794159483 -27.993593167 5.1462206918 9.4008510505 -27.728314366 8.4765830061 9.2919881244 
-28.401639971 0.34010441972 8.7811497225 -28.100649521 1.4378099894 8.873545002 -28.029236412 3.1924699375 8.6516265943 
-28.060868041 4.1833558296 9.0160661008 -27.565694862 7.6391618256 8.892377652 -27.596238355 5.75781072 8.4865817413 
-27.583058254 6.6771995519 8.5142165388 -27.557640021 8.3849616008 8.3217209537 -27.950808003 9.353358109 9.2232243219 
-28.211502765 1.0895579577 8.0716599626 -27.994722393 2.1396247108 8.1668791016 -27.529866937 7.4196464441 7.8981483032 
-27.809886889 9.3985255797 8.291719465 -28.615204087 0.26610450699 7.9092545195 -27.789141872 3.0724831599 7.7539162019 
-27.504999401 6.250443093 7.5141445331 -28.258025539 1.6393268925 7.2882511247 -27.925093943 2.443604424 7.2355963308 
-27.524247027 8.7446381552 7.4674288885 -27.492808889 7.9335435657 7.0636762256 -27.729393006 9.7743237902 7.4582398028 
-28.636052513 0.77954477932 7.1748615729 -27.53640433 7.0424348996 6.9749233623 -27.473693339 9.4281020475 6.7328844467 
-27.59959767 10.503644397 6.6399077531 -28.238828805 2.181000876 6.4394052042 -27.500928969 7.5775552996 6.0523392918 
-27.441675901 8.5738803032 6.3793721658 -27.37276797 9.7043669411 5.926202563 -27.62270284 11.398341917 5.8875447965 
-28.4839146 1.9267973729 5.5301707469 -27.466670031 6.8295374782 5.3592403894 -27.41521059 8.7459011771 5.5090053235 
-27.389561678 10.608276639 5.5607166787 -27.482924311 7.892034572 5.0621467221 -28.020229626 2.5366976206 4.9069436848 
-27.356559661 9.680442932 4.9932805354 -27.665024142 11.576818302 4.7137011857 -27.534178261 7.2178892525 4.4026831564 
-27.437662172 8.8424353992 4.5083510684 -27.433046914 10.612772521 4.6452999414 -28.100488473 2.7023786678 4.0232954378 
-27.5616698 8.1125085816 3.9431107561 -27.499614292 9.8781685284 4.0077953027 -27.595771524 6.5575361053 3.8337322054 
-27.641729004 9.1097083498 3.5442519562 -27.713331102 10.952747913 3.7927577246 -27.678362224 4.6155452613 3.2263214397 
-27.76145914 7.4237303399 3.295185365 -28.174135454 2.8200602316 3.0864282776 -27.758816034 6.2698322746 3.0810518818 
-27.888856836 8.3974652995 2.9654329901 -27.910717369 3.7953477856 2.6783807459 -27.776251947 5.4652349155 2.8098081593 
-28.02257117 6.8621067816 2.5452522664 -28.247435767 3.0199469202 2.1661010582 -27.93707159 4.7844382253 2.2518636477 
-28.174815878 4.0182436532 1.7838561026 -28.095839125 5.9591776913 2.0539411336 -28.267228212 5.1620276129 1.4432669257 
-28.5048089 7.0919741524 12.552290284 -28.799641599 6.2192451155 12.919480417 -28.69884786 5.3239767086 12.300101371 
-28.432462292 6.1995913955 12.009760947 -28.756241851 7.8319758071 12.971259294 -28.410046989 8.0873393038 11.941415045 
-28.687693686 4.4442885001 11.817832444 -28.290143998 7.1420857026 11.674423874 -28.766401083 3.4842226019 11.521005219 
-29.275552504 3.7050154788 12.271386995 -28.430455719 5.3459212984 11.330149704 -28.658032887 9.0949891594 11.5861959 
-29.227980738 0.70802578812 11.388472331 -28.969546086 1.5483111349 11.275757252 -28.870380821 2.5438654619 11.375080064 
-28.497010271 4.2472600358 10.8979233 -28.275350425 6.3710598045 11.075433878 -28.157740751 7.5077780985 10.886990211 
-28.222188591 8.4582770417 10.971766183 -29.470810481 -0.16515615764 11.24137365 -28.959840611 0.09588630485 10.567712166 
-28.493736436 3.2622783571 10.621634573 -28.5762517 9.6488153142 10.812012612 -29.49872091 -0.78515005687 10.665736864 
-28.344904851 5.0158846068 10.392857809 -28.098911956 8.968991793 10.163002647 -29.086785212 -0.69595786975 9.877002123 
-28.334125231 4.2331407258 9.9283896875 -28.28149091 10.013930528 9.906890997 -29.355969454 -1.3583178291 9.1654815988 
-28.51070506 11.005649963 9.7478736184 -28.840115009 -0.54044274222 9.0023314847 -28.031417876 10.285330535 8.8794565677 
-28.096940858 11.197588407 8.773742217 -28.14348785 12.234720227 8.4373054706 -29.276428043 -1.4074441431 8.3165597171 
-28.904176258 -0.55851162882 8.1217402104 -27.899184532 10.553249424 7.8059891267 -27.913396156 11.469366588 7.8523441056 
-28.188924929 13.117664683 7.9574417457 -29.642670977 -1.9292594137 7.5879620698 -29.254555992 -1.0982402854 7.3607630437 
-28.996701872 -0.19075871701 7.1839173692 -27.874071749 12.361868039 7.4150055682 -27.795530675 11.430181278 6.894958499 
-27.897322916 13.249318926 6.8510791075 -29.364150505 -0.58895537258 6.4365619834 -28.964410325 0.36863256782 6.3640351024 
-28.663240757 1.3404067529 6.37787625 -27.78768885 12.380391819 6.42623089 -28.041298473 14.080715748 6.3929689074 
-27.786931083 13.263850591 5.7715687874 -29.198825703 -0.11679631203 5.6284183403 -28.811378846 0.96141164122 5.4997893916 
-27.744673128 12.214811087 5.5034353506 -28.050016248 14.323548477 5.4618549617 -28.966795178 0.21001519859 4.8502878299 
-29.274758395 -0.70720829981 4.8130350088 -27.765128918 12.754405855 4.8148782366 -27.827442261 13.639161678 4.8260739651 
-28.796363092 0.96186808013 4.5833123567 -28.585783165 1.8045454278 4.5587746731 -28.148059943 14.452208025 4.4822497007 
-29.169046117 -1.2331273482 4.0318583433 -28.944302877 -0.1293715992 4.0001479122 -27.786578041 12.436908482 4.0370948654 
-29.549148174 -2.2365640443 4.0249922695 -28.792108214 0.95013488426 3.7832987768 -28.577882545 1.9631290481 3.6040879569 
-27.819520612 11.833643855 3.4469633277 -27.866232739 13.456379353 3.8683969602 -28.206578515 14.286281109 3.5914311578 
-29.171469907 -1.7874715506 3.2361488815 -28.958929241 -0.6866038938 3.1989913188 -29.658028032 -2.7546724803 3.0619977366 
-28.853134368 0.33852047441 3.0914231089 -28.753419455 1.2577704972 2.9285629622 -27.824725794 10.244883666 3.1280873239 
-27.876588684 12.863532853 3.0858918857 -28.184063512 13.803363275 2.7902272608 -29.017557893 -1.174083389 2.4154302413 
-28.576353158 2.0857425585 2.5570865716 -27.943409066 9.4376092733 2.6704059444 -27.878475087 11.260364401 2.7301012024 
-27.900174993 12.245789318 2.370776578 -29.330166116 -2.1864845787 2.3569931878 -28.884240082 -0.031298424272 2.3238636217 
-28.109719408 7.739954186 2.3017386967 -27.944626605 10.521973985 2.2034792967 -28.154551253 13.176657442 2.0614481912 
-28.775739051 1.1154686483 2.0618249281 -28.094417853 8.7133407602 2.0178801355 -28.029719124 9.6937435465 1.7534801095 
-27.912020437 11.59489837 1.7091900203 -27.081242483 24.178913172 2.2305206927 -27.426216097 23.353979218 2.1634399712 
-27.145014136 24.937836457 2.1479264883 -29.633281696 -2.4637169054 1.494904169 -29.175126587 -1.5705192155 1.5384747 
-28.946555775 -0.5867401255 1.5982978901 -28.839714677 0.46584161507 1.4264765045 -28.60913365 2.2383251948 1.6383125632 
-28.25859093 6.914306369 1.6389933463 -28.248965043 7.9226917554 1.3721815353 -27.041799319 23.820601187 1.3755577112 
-28.745958615 1.4725614984 1.1014010526 -28.456058666 3.2489507561 1.2753172475 -28.373380171 6.1327603981 1.0599023634 
-28.196743763 8.8802946466 1.0711413253 -27.95079576 10.73591153 1.291385432 -28.119244857 12.530407222 1.2618208367 
-26.844581112 24.717470021 1.1676101514 -27.107183387 25.631892359 1.5185135674 -29.460235186 -2.0760650633 0.65340180487 
-29.033311263 -1.0688431739 0.70919228189 -28.897163233 -0.15330587268 0.74128135312 -28.648266099 2.4279443469 0.68115292021 
-28.436450032 4.3252402735 0.96608167898 -28.433135565 7.2010314221 0.72919766005 -28.057948137 9.8431580073 0.8592260596 
-28.007569906 11.637742268 0.68768279534 -28.816529008 0.72967391031 0.4131169073 -28.569351216 3.3993035321 0.37203513953 
-28.545857676 5.3449622666 0.46385928613 -28.516704736 8.1826405171 0.43364004274 -28.013477878 10.762350634 0.31411451211 
-27.214581639 23.865169394 0.46353862214 -26.839060217 25.725127536 0.64637551461 -29.127207755 -1.4383607732 -0.065626429087 
-28.733369751 1.6722734941 0.044392281105 -28.579739715 4.3217596975 0.073550051151 -28.63280842 6.4691342082 0.16811204162 
-28.371769029 9.1003131442 0.164670938 -28.153834408 9.9480988524 -0.038269341078 -28.286716959 12.327264047 0.10977664519 
-26.837715614 24.857873853 0.19562136579 -27.050119645 26.660335596 0.1864703779 -29.65716412 -2.4210317726 -0.22141728101 
-28.908064746 -0.26003954644 -0.15517321907 -28.650477402 2.6315559234 -0.30693074843 -28.802158475 4.9921346867 -0.42896191544 
-28.911842915 5.8640488838 -0.42307104723 -28.247258759 11.394815103 -0.41210462403 -27.209067267 24.297333694 -0.42642773993 
-26.729190109 25.842217139 -0.28605101846 -28.993838466 -0.81588356412 -0.91288283597 -28.802803829 0.88725173382 -0.55410663088 
[...]
POINT_DATA 19999
SCALARS thickness%20(mm) double
LOOKUP_TABLE default
0 0 0 0 0 0 0 0 0 
0 0 0 0 0 0 0 0 0 
0 0 0 0 0 0 0 0 0 
0 0 0 0 0 0 0 0 0 
0 0 0 0 0 0 0 0 0 
0 0 0 0 0 0 0 0 0 
0 0 0 0 0 0 0 0 0 
0 0 0 0 0 0 0 0 0 
0 0 0 0 0 0 0 0 0 
0 0 0 0 0 0 0 0 0 
0 0 0 0 0 0 0 0 0 
0 0 0 0 0 0 0 0 0 
0 0 0 0 0 0 0 0 0 
0 0 0 0 0 0 0 0 0 
0 0 0 0 0 0 0 0 0 
0 0 0 0 0 0 0 0 0 
0 0 0 0 0 0 0 0 0 
0 0 0 0 0 0 0 0 0 
0 0 0 0 0 0 0 0 0 
0 0 0 0 0 0 0 0 0 
0 0 0 0 0 0 0 0 0 
0 0 0 0 0 0 0 0 0 
0 0 0 0 0 0 0 0 0 
0 0 0 0 0 0 0 0 0 
0 0 0 0 0 0 0 0 0 
0 0 0 0 0 0 0 0 0 
0 0 0 0 0 0 0 0 0 
0 0 0 0 0 0 0 0 0 
0 0 0 0 0 0 0 0 0 
0 0 0 0 0 0 0 0 0 
0 0 0 0 0 0 0 0 0 
0 0 0 0 0 0 0 0 0 
0 0 0 0 0 0 0 0 0 
0 0 0 0 0 0 0 0 0 
0 0 0 0 0 0 0 0 0 
0 0 0 0 0 0 0 0 0 
0 0 0 0 0 0 0 0 0 
0 0 0 0 0 0 0 0 0 
0 0 0 0 0 0 0 0 0 
0 0 0 0 0 0 0 0 0 
0 0 0 0 0 0 0 0 0 
0 0 0 0 0 0 0 0 0 
0 0 0 0 0 0 0 0 0 
0 0 0 0 0 0 0 0 0 
0 0 0 0 0 0 0 0 0 
0 0 0 0 0 0 0 0 0 
0 0 0 0 0 0 0 0 0 
0 0 0 0 0 0 0 0 0 
0 0 0 0 0 0 0 0 0 
0 0 0 0 0 0 0 0 0 
0 0 0 0 0 0 0 0 0 
0 0 0 0 0 0 0 0 0 
0 0 0 0 0 0 0 0 0 
0 0 0 0 0 0 0 0 0 
0 0 0 0 0 0 0 0 0 
0 0 0 0 0 0 0 0 0 
0 0 0 0 0 0 0 0 0 
0 0 0 0 0 0 0 0 0 
0 0 0 0 0 0 0 0 0 
0 0 0 0 0 0 0 0 0 
0 0 0 0 0 0 0 0 0 
0 0 0 0 0 0 0 0 0 
0 0 0 0 0 0 0 0 0 
0 0 0 0 0 0 0 0 0 
0 0 0 0 0 0 0 0 0 
0 0 0 0 0 0 0 0 0 
0 0 0 0 0 0 0 0 0 
0 0 0 0 0 0 0 0 0 
0 0 0 0 0 0 0 0 0 
0 0 0 0 0 0 0 0 0 
0 0 0 0 0 0 0 0 0 
0 0 0 0 0 0 0 0 0 
0 0 0 0 0 0 0 0 0 
0 0 0 0 0 0 0 0 0 
0 0 0 0 0 0 0 0 0 
0 0 0 0 0 0 0 0 0 
0 0 0 0 0 0 0 0 0 
0 0 0 0 0 0 0 0 0 
0 0 0 0 0 0 0 0 0 
0 0 0 0 0 0 0 0 0 
0 0 0 0 0 0 0 0 0 
0 0 0 0 0 0 0 0 0 
0 0 0 0 0 0 0 0 0 
0 0 0 0 0 0 0 0 0 
0 0 0 0 0 0 0 0 0 
0 0 0 0 0 0 0 0 0 
0 0 0 0 0 0 0 0 0 
0 0 0 0 0 0 0 0 0 
0 0 0 0 0 0 0 0 0 
0 0 0 0 0 0 0 0 0 
0 0 0 0 0 0 0 0 0 
0 0 0 0 0 0 0 0 0 
0 0 0 0 0 0 0 0 0 
0 0 0 0 0 0 0 0 0 
0 0 0 0 0 0 0 0 0 
0 0 0 0 0 0 0 0 0 
0 0 0 0 0 0 0 0 0 
0 0 0 0 0 0 0 0 0 
0 0 0 0 0 0 0 0 0 
0 0 0 0 0 0 0 0 0.92116989355 
0 0 0 0 0 0 0 0 0.82695011281 
0 0 0 0 0 0.081776484282 0 0 0 
0 0 0 0 0 0 0 0 0 
0 0 0 1.3778144683 0 0 0 0 0 
0 0 0 0 0 0 0.1416401535 0 0 
0 0 0 0 0 0 0 0 0 
0 0 0 0 0 0 0 0 0 
0 0 0 0 0 0 0 0 0 
0 0 0 0 0 0 0 0 0 
0 0 0 0 0 0 0 0 0 
0 0 0 0 0 0 0 0 0 
0 0 0 0 0 0 0 0 0 
0 0 0 0 0 0 0 0 0 
0 0 0 0 0 0 0 0 0 
0 0 0 0 0 0 0 0 0 
0 0 0 0 0 0 0 0 0 
0 0 0 0 0 0 0 0 0 
0 0 0 0 0 0 0 0 0 
0 0 0 0 0 0 0 0 0 
0 0 0 0 0 0 0 0 0 
0 0 0 0 0 0 0 0 0 
0 0 0 0 0 0 0 0 0 
0 0 0 0 0 0 0 0 0 
0 0 0 0 0 0 0 0 0 
0 0 0 1.3532967893 0 0 0 0 0 
0 1.4444133294 0 1.1136587356 1.3771713062 0 1.3478620974 0 1.4202252209 
0 1.1582437693 0 0 1.1672718759 0 1.5812145372 0 1.385837094 
0 0 1.7220909548 0 0 0 1.7264194434 0 0 
0 1.70504871 0 0 1.5277666732 0 0 0 1.275537463 
0 0 0 0 0 0 0 0 0 
0 0 0 1.2702439341 0 0 0 0 0 
0 0 0 0 0 1.2722574784 0 0 0 
0 0 0 0 1.1684930601 0 0 0 0 
0 0 0 0 0 0 0 0 1.4390824426 
0 0 0 0 0.8379275995 0 0 0 0.79633001309 
0 0 0 0 0 0 0 0 0 
0 0 0 0 0 0 0 0 0 
0 0.2949281939 0 0 0 0 0 0 0 
0 0 0 0 0 0 0 0 0 
0 0 0 0 0 0 0 0 0 
0 0 0 0 0 0 0 0 0 
0 0 0 0 0 0 0 0 0 
0 1.3350267464 0 0 0 0 0 0 0 
1.6006877474 0 0 1.5354307433 0 0 1.5433510337 1.5638436709 0 
0 1.7966167487 0 1.8632337729 0 0 0 1.9619588068 0 
0 2.0650079595 0 0 1.998159932 0 0 0 0 
2.062890193 0 0 2.0244123318 0 0 2.0545868559 0 0 
1.8207549406 0 0 0 0 0 1.958416478 0 0 
0 0 0 0 0 0 0 0 0 
1.9438645415 0 0 0 0 0 0 0 0 
1.8584963082 0 0 0 0 0 0 1.5539025738 0 
0 1.3818258818 0 0 1.312538576 0 0 1.4710840878 0 
1.3817861921 0 1.1954476857 0 1.5449339357 0 0 0 0 
1.4243215387 1.321934433 0 0 0 0.9584247576 0 0 0 
0 0 0 0 0 0 0 0 0 
0 0 0 0 0 0 0 0 0 
0 0 0 0 0 0 0 0 0 
0 0 0 0 0 0 0 0 0 
0 0 0 0 0 0 0 0 0 
0 0 1.3973411489 0 0 1.9508350907 0 0 1.7596886579 
1.7212828938 0 1.8370393692 0 0 1.7247804841 0 0 1.7101767264 
0 0 0 0 1.6951805432 0 0 0 0 
1.7718695271 0 0 1.8346344681 0 0 0 0 0 
0 0 2.0413866049 0 2.1469091191 0 0 0 0 
2.157562954 0 2.1986687292 0 0 2.2208191776 0 0 0 
0 0 0 0 2.1392259469 0 0 0 0 
0 0 1.9685230037 0 0 2.1014533196 0 0 0 
0 0 0 2.1501156578 0 0 0 1.9174615644 0 
0 0 0 0 0 0 1.8834781797 0 0 
1.8272485195 0 0 1.6973976032 0 0 0 0 1.9160330236 
0 1.6499071752 0 0 0 1.9428712427 0 1.8483768861 0 
0 1.8325340625 0 0 1.6544888603 0 1.6246664752 0 0 
0 0 1.5508153404 0 0 0 1.4233717851 0 0 
1.267805716 0 0 0 0 0 0 0 0 
0 0 0 0 0 0 0 0 0 
0 0 0 0 0 0 0 0 0 
0 0 0 0 0 0 0 0 0 
0 0 0 0 0 0 0 0 0 
0 0 1.8160274435 0 0 0 0 1.9985648624 0 
1.906194136 0 0 0 1.9088875035 0 0 1.8851793216 0 
0 1.8103643385 0 1.8957301991 0 0 0 0 0 
1.9734840399 0 2.0128591695 0 0 2.081978738 0 0 2.1881774376 
0 0 0 0 2.2634347366 0 0 0 2.2944808312 
0 2.2781981418 0 0 0 0 0 2.1813783707 0 
0 2.1850347476 0 0 0 2.2115467413 0 0 2.179652145 
0 0 0 0 2.1661545353 0 0 0 0 
2.244464128 0 0 0 2.267268951 0 0 0 0 
0 2.2871417257 0 0 0 0 2.1804027659 0 0 
0 2.0944245472 0 0 0 0 0 2.0918522648 0 
0 0 0 2.0633388345 0 0 0 0 0 
0 0 0 0 0 0 0 0 0 
0 0 0 0 0 0 1.866965678 1.7376362982 0 
1.0826645929 0 0 0.91106862019 0.92858530387 0 0 0.81811326185 0 
0 0 0 0 0 0 0 0 0 
0 0 0 0 0 0 0 0 0 
0 0 0 0 0 0 0 0 0 
0 0 0 0 0 0 0 0 0 
0 0 0 0 0 0 0 0 0 
0 0 0 1.8584683398 2.06722031 0 0 1.94385997 0 
0 1.9541167122 0 2.0113388787 0 0 2.022047045 2.0461326819 0 
0 1.999655101 0 0 2.0659970808 0 2.0564731075 0 2.1249549118 
0 0 0 2.2759353137 0 0 2.3577821677 0 2.3509524876 
0 0 0 2.2397306772 0 0 0 2.2035190377 0 
2.2165987512 0 0 0 2.2169976997 0 2.2224027467 0 0 
0 0 2.340875623 0 0 0 2.3618438848 0 0 
0 2.3192031441 0 0 0 0 2.2852356052 0 0 
0 0 2.1176843814 0 0 0 0 2.2652669269 0 
0 0 0 0 2.2920832263 0 0 0 0 
2.423918637 0 2.2906770305 0 0 0 0 2.2549933063 0 
0 0 0 2.0975010577 0 0 1.9738571131 0 1.936235693 
0 0 0 0 0 0 1.5696843966 0 0 
1.375934447 0 1.5607657165 0 0 0.89795417605 0 0 0 
0.16344101705 0.83524079067 0 0 0 0 0 0 0 
0 0 0 0 0 0 0 0 0 
0 0 0 0 0 0 0 0 0 
0 0 0 0 0 0 0 0 0 
0 0 0 0 0 0 1.7066416012 0 0 
1.9911234672 1.9820512019 0 1.9350043188 0 1.952206556 0 2.0010182827 0 
0 0 0 0 0 2.0971288314 0 2.1528091694 0 
0 0 0 0 0 2.2493224842 0 0 2.4232706036 
0 0 0 0 0 2.2956450297 0 0 2.2911944806 
0 0 2.2594222627 0 2.2378845065 0 2.2116966984 0 0 
0 2.2482223584 0 2.2937864194 0 0 0 0 0 
0 0 0 2.4701342482 0 0 2.5059946175 0 0 
0 0 2.511006487 0 0 0 0 0 0 
0 2.3950446116 0 0 0 0 2.5752251689 0 0 
2.5769254369 0 0 0 2.6031876336 0 2.5773616045 0 2.5439045818 
0 0 2.5366225846 0 0 0 2.3508929087 0 0 
2.3059514675 0 0 2.2429319925 0 0 0 0 0 
0 2.0921637611 0 0 0 0 0 0 0 
0 0 0 0 0 1.9609894776 0 0 0 
1.8679562805 0 0 0 0 1.440202783 0 0 0 
0 0 0 0 0 0 1.124534672 0 0 
0.94327391357 0.97162969794 1.4344041187 0 0 0 0 0 0 
0 0 0 0 0 0 0 0 0 
0 0 0 0 0 0 0 0 0 
0 0 0 0 0 0 0 0 0 
0 0 0 0 0 0 0 0 1.5524214372 
0 0 0 1.8848454793 0 0 1.9324258062 1.9004172944 0 
1.9265740883 0 1.9793074256 0 2.0487507209 2.107223654 0 2.1823731088 0 
2.1798000311 0 0 2.1845231032 0 0 2.1419709137 0 2.1735768721 
0 2.2714573844 0 0 2.3943105154 0 0 2.4888797904 0 
0 0 2.41187347 0 0 2.2659789174 0 0 0 
0 0 0 2.2427721623 0 0 0 0 2.2303380016 
0 0 2.3899647373 0 0 2.4563701282 0 0 0 
0 0 0 2.5759497589 0 0 0 2.5971620928 0 
0 0 2.7078925568 0 0 0 0 2.6807902139 0 
2.6698310344 0 0 0 2.6681966597 0 0 2.5785204106 0 
0 2.4458077286 0 0 2.3296613841 0 0 0 0 
2.2689482018 0 2.2063864028 0 0 2.145475754 0 2.0787628271 1.9219238252 
0 0 1.6173037826 0.22161465695 0.090623137346 0 0 0 1.4623003084 
0 0.15897196175 0.63964049396 1.0207201822 1.042424701 0.68435662694 1.2189321257 1.077041016 1.6132836323 
1.554304311 0 0 0 0 0 0 0 0 
0 0 0 0 0 0 0 0 0 
0 0 0 0 0 0 0 0 0 
0 0 0 0 0 0 0 0 0 
0 0.80673541344 0 0 1.6028749902 1.9236154284 0 0 1.8876193031 
0 0 0 1.9372241825 0 2.1236518678 0 2.2209227865 0 
2.2282518223 0 0 2.2599925119 0 2.2793844912 0 2.4091409906 0 
0 0 0 2.4539077045 0 2.4226849223 0 0 0 
2.3230099285 0 0 0 2.2649207766 0 2.2462159952 0 2.2418831211 
0 0 0 0 2.2842023065 0 2.2914952068 0 2.3938969999 
0 0 2.4702858393 0 0 2.5360958826 0 0 2.6003544543 
0 0 2.6136073522 0 0 2.5902175397 0 0 2.5601944352 
0 0 2.6287637815 0 2.6492820845 0 0 0 2.6366756238 
0 0 0 2.5458427383 2.4535580036 0 0 0 0 
0 0 0 0 2.3466004642 2.275878139 0 2.2607639828 0 
2.2531086998 0 2.2247339287 0 2.138258869 0.41746170941 1.9059174754 1.6850692503 1.7000793672 
0.45933826859 0 1.7767741134 0.22670441477 0.62743086691 0.37706258414 0.86185740646 0.93558616763 1.3763967839 
1.4913047703 1.4186638226 1.7492135551 0 0 0 0 0 0 
0 0 0 0 0 0 0 0 0 
0 0 0 0 0 0 0 0 0 
0 0 0 0 0 0 0 0 0 
0 0 0 0 0 0 0 0 0 
0 0 0 0 0 0 0 0 1.7598750451 
1.8441236989 0 0 1.8475496924 0 0 0 2.0077971011 0 
0 2.0941357018 0 2.188271351 0 0 0 2.2871373799 0 
2.331090836 2.4650260285 0 0 2.496667286 0 0 0 0 
2.4382768144 0 0 2.4786444431 0 0 0 0 2.2596252182 
0 0 0 2.3041030535 0 0 0 2.3209279766 0 
2.3048472505 0 0 0 0 0 2.2936966786 0 2.3828059953 
0 0 0 2.489063641 0 2.566529475 0 2.6508799013 0 
0 2.7174819079 0 0 2.6649146801 0 0 2.6272908702 0 
2.5859062039 0 0 0 2.6699524308 0 0 2.6272095484 0 
0 2.5769224407 0 0 0 0 0 0 2.4584596296 
0 0 2.3476637726 2.271122013 0 0 2.2644523642 0 2.2122921955 
0 2.0834689707 0 0.46239998389 1.8810487578 0.54620570797 1.996338813 2.0263411138 0.39988448586 
0.51917971314 0.91276611944 0.96906443018 0.83860563869 1.1241140731 1.3872515088 1.6030410216 1.7363818952 1.7644183269 
2.015390945 1.8652064066 0 0 0 0 0 0 0 
0 0 0 0 0 0 0 0 0 
0 0 0 0 0 0 0 0 0 
0 0 0 0 0 0 0 0 0 
0 0 0 0 0 0 1.0315963366 1.5646122043 0 
0 1.7790915344 0 1.835971781 1.808241425 0 1.7598411295 0 1.8435391617 
0 1.9929103299 0 0 2.1735371801 0 2.2565950781 0 2.4529559126 
0 0 0 2.6274608073 0 0 2.6770797087 0 2.5877907166 
0 2.4674380972 0 2.3303751232 0 0 0 2.3721786748 0 
2.3822219379 0 2.3910566203 0 2.3360398517 0 0 2.3579224596 0 
0 2.4917018658 0 0 2.5926123278 0 2.6742035273 0 0 
2.7426394041 0 2.7253103819 0 2.6765572335 0 2.6163983864 0 2.5900185162 
0 2.5980463398 0 0 2.5702997315 0 0 0 2.505140696 
0 0 2.3581115917 0 2.2545968577 0 2.2769902251 0 0 
2.2555423577 0 1.9914733262 0.13582340808 0.7048818157 0.75808359389 2.1568340799 2.1554928369 0.86444847172 
0.98046714527 1.2049568701 1.2405220563 1.2129496732 1.5005677617 1.7097998084 1.8279315586 2.0456661852 2.0709338874 
0 0 0 0 0 0 0 0 0 
0 0 0 0 0 0 0 0 0 
0 0 0 0 0 0 0 0 0 
0 0 0 0 0 0 0 0 0 
0 0 0 0 0 0 0 0.42597971511 0 
1.4766184723 1.8186527514 0 1.7936360859 0 0 0 1.9706512296 0 
1.9323443598 0 0 0 1.8019396858 0 2.0053740672 2.0893029408 0 
0 2.201545912 2.3435122588 0 0 0 0 2.5495581182 0 
2.6290369459 0 2.7051760936 0 0 2.8034287244 0 0 2.7049522903 
0 2.5475070601 0 0 2.4792604255 0 2.4649654232 0 0 
2.4100446163 0 0 2.4107319042 0 0 2.3374538488 0 0 
0 0 2.4026866545 0 2.5418757557 0 2.6691796884 0 0 
2.7065748422 0 2.6535231491 0 0 2.6339855505 0 2.5773188179 0 
0 2.5665181599 0 0 2.5664898806 0 2.527428983 0 0 
2.5056502977 0 2.4047094892 0 2.2900613847 2.2558882929 0 2.2426052905 2.2706781252 
0 2.2873312982 2.257118897 2.2001846096 0 0 0 2.09014983 2.0935150153 
0.48417092495 2.1815560801 2.0648935741 1.2483563111 2.217333995 1.2668557392 1.3464636323 1.5179234203 1.5302917219 
1.6580687473 1.7363340561 1.9827898583 2.1153808274 2.249547859 0 0 0 0 
0 0 0 0 0 0 0 0 0 
0 0 0 0 0 0 0 0 0 
0 0 0 0 0 0 0 0 0 
0 0 0 0 0 0 0 0 0 
0 0 0 0 0 0 0 0 0 
0 0 1.5538136614 0 1.8497590705 0 2.2066065323 0 0 
0 2.296563163 0 2.1532542021 0 1.9561086588 0 0 0 
2.194610208 0 0 2.3629038429 0 2.485809894 0 2.6103451938 0 
0 2.690454678 0 2.7866343542 0 0 0 0 2.5948931378 
0 0 2.5120501833 0 2.4160186276 0 0 2.388978615 2.3597930078 
0 0 2.3063626544 0 0 0 0 2.7247212134 0 
0 2.7229738421 0 0 2.650908383 2.5947918211 0 2.5505472546 0 
0 0 2.5442046585 2.5022522854 0 0 2.3926859288 2.3280374213 0 
2.2814928647 2.2808335093 0 2.2697042912 2.2984171674 0 0.6290544905 2.1586308734 0.8322061654 
2.1469862048 1.1421955759 1.3026350718 1.2655925168 2.2017513977 2.1655734968 1.5972442634 1.6353476063 1.6762456603 
2.2757840508 2.2585545463 2.2005611751 1.8419288256 1.8629490047 2.0451940571 2.1498838071 2.1402868683 2.222919137 
0 0 0 0 0 0 0 0 0 
0 0 0 0 0 0 0 0 0 
0 0 0 0 0 0 0 0 0 
0 0 0 0 0 0 0 0 0 
0 0 0 0 0 0 0 0 0 
0 1.245677373 0 2.2180953335 0 0 0 2.5929667323 0 
0 2.2466706638 0 2.5401604599 0 2.2850758251 0 0 0 
2.3674066389 0 2.6156100315 0 0 2.6244752975 0 2.7151245879 0 
0 2.7501644027 0 0 2.7723241637 0 0 2.8356494663 0 
2.7638634471 0 0 0 0 2.5040702289 0 0 2.4431799914 
0 0 2.4052383479 0 2.3834191908 2.3249809411 0 0 2.338696138 
0 0 2.4453455471 2.5752327967 0 2.6739687145 0 0 2.7243633105 
0 0 2.7257265664 0 2.6655724289 0 0 2.5429586152 0 
2.534333189 0 0 0 2.4337814066 2.3580039346 0 2.3168810922 0 
2.2953135553 0 0 2.282716237 0 0 2.2422747462 1.4577744131 1.49923027 
2.1655873744 1.5618897407 1.5799635329 1.5694833163 2.1927144443 1.6027741873 2.2248446474 1.8155134386 1.8372433899 
1.8862319265 2.2421112142 2.1216495699 2.185312691 1.9754829185 2.0719801666 2.1651127584 2.1866866718 0 
0 0 0 0 0 0 0 0 0 
0 0 0 0 0 0 0 0 0 
0 0 0 0 0 0 0 0 0 
0 0 0 0 0 0 0 0 0 
0 0 0 0 0 0 0 0 0 
0 0 0 0 0 0 0 1.3298747567 1.7896951224 
0 2.1265192933 0 2.5641934227 2.5964710545 0 0 2.7901696935 0 
0 2.6934452652 0 0 2.7391986436 0 2.5484586722 0 0 
2.7621844743 0 2.6704632364 0 0 2.8461959156 2.7686224402 0 0 
2.8036089242 0 2.7189558038 0 0 0 0 2.7690016255 0 
2.6581961614 0 2.5666573539 0 2.5402179937 0 2.5199163574 0 2.469495294 
0 0 0 0 2.4088709199 0 2.3660295148 0 2.4134305561 
0 2.5322095407 0 0 2.6215954088 0 2.7084548089 0 2.7849230917 
0 0 2.785185253 0 0 2.6267106923 0 2.5796751221 2.5683273637 
0 2.5747021105 2.5286029471 0 0 2.5212999907 2.4076818546 0 2.3134243213 
0 0 2.3131921686 2.2792277667 2.3175216067 0 2.2514034314 0 1.3033508847 
1.7571023184 1.7603333476 2.1787652406 1.7207769225 1.7467726053 2.313418029 2.1948760134 1.7919820413 2.2471490336 
2.2571278303 1.9107223602 1.963408696 2.0425364855 2.1074889104 2.1520771335 2.1207901899 2.1153469738 2.1690367678 
2.1853471739 2.1976625211 0 0 0 0 0 0 0 
0 0 0 0 0 0 0 0 0 
0 0 0 0 0 0 0 0 0 
0 0 0 0 0 0 0 0 0 
0 0 0 0 0 0 0 0 0 
0 0 0 0 0 0 0 0.50066003965 0 
1.7627788612 2.0274796888 2.3798759608 0 0 2.8460365812 0 2.9080203706 0 
2.7949054512 0 2.8963492314 0 2.8392745746 0 0 0 2.8914395174 
0 0 2.8744796114 0 2.8202468605 0 0 0 0 
2.6758091248 0 2.6843252881 0 2.6527421588 0 2.5876284279 0 0 
2.5346015389 0 0 0 2.4920963658 2.4278020903 0 0 0 
0 2.4079818089 0 0 0 2.4863957888 0 2.5995319596 0 
2.661003966 0 0 2.7516100542 0 2.736606441 0 2.6970932014 0 
0 2.6091347646 0 2.6259621621 0 0 0 2.2887989832 2.2973534409 
2.3197851739 0 0.97741081621 1.6909943348 1.72343723 1.9172045399 2.3063729411 1.790540619 2.255343136 
1.8223466783 2.2398527549 1.8376457034 2.3315975683 2.4139117342 2.3397812599 1.854930487 1.9032801497 2.2912224623 
1.9655355555 2.0040213223 2.0680419433 2.218231603 2.0445198754 2.1591358594 2.1823671513 2.1878545339 2.1831448508 
0 0 0 0 0 0 0 0 0 
0 0 0 0 0 0 0 0 0 
0 0 0 0 0 0 0 0 0 
0 0 0 0 0 0 0 0 0 
0 0 0 0 0 0 0 0 0 
0 0 0 0 0 0 0 0 0 
0 1.4331551192 1.7834499817 0 1.9929483262 0 2.2065047601 0 0 
2.6612136345 0 0 2.9948290538 0 2.9937390162 2.8678301091 0 0 
2.9150247917 0 0 2.9452829413 0 2.8606524687 0 0 2.8982615518 
0 2.8899976618 0 2.8593879171 0 0 2.6564680997 0 2.6135553787 
0 0 2.6769053503 2.6700075072 0 0 0 2.5324355876 0 
0 0 2.5170497994 0 0 0 2.527234285 2.468567252 0 
2.4763868302 0 2.4537572861 0 0 0 0 2.6712771959 0 
2.6576673159 0 2.6614286484 0 2.5681508553 0 2.5653724872 2.5958286587 0 
2.5895275557 2.5052338116 0 2.3775718391 2.3122815343 0 2.3371052678 2.3448761294 0 
0 1.9737030782 2.3387709191 1.9225046209 1.8904403881 2.3609396216 1.8537231217 2.3571625994 1.8900958588 
1.8892003789 2.4128315902 1.8898908619 1.9018830789 2.3353601589 1.9265222345 1.9454712157 2.0986941628 2.0276777108 
2.1267602126 2.1463473522 2.1872707851 2.2013535109 2.1901888465 2.1878014005 2.1170092911 0 0 
0 0 0 0 0 0 0 0 0 
0 0 0 0 0 0 0 0 0 
0 0 0 0 0 0 0 0 0 
0 0 0 0 0 0 0 0 0 
0 0 0 0 0 0 0 0 0 
0 0 0 0 0.49568248579 1.6051607478 0 0 0 
2.4958050135 0 2.7930692527 0 2.9805751958 0 0 3.0696460776 0 
2.9453870143 0 0 2.9424293691 0 0 2.837068965 0 0 
2.8773970821 0 0 2.8631586728 0 0 2.6833970137 0 2.6108351099 
0 0 0 2.6370597864 0 2.5505168621 0 0 2.5345305934 
0 0 2.5651126128 0 2.5573966957 0 2.5959351298 0 2.5857710364 
0 2.5648983626 0 2.4945733344 0 2.5895923865 0 2.6353852485 0 
0 0 2.5231323181 0 0 2.5222644976 2.4562037275 0 2.5275022883 
0 0 2.5486873233 2.5441090317 2.454194678 0 2.3890380939 2.3792130171 0 
2.408336921 1.7976416776 2.3959199755 0 2.0820222798 2.4135020176 1.9592065834 1.9183291956 1.8861736701 
2.3289222856 2.3242712547 1.8702776923 2.3889039954 2.3022455113 1.8910855639 1.8872634524 2.1337455491 2.2144240475 
1.9501962416 2.0597121533 2.0979010297 2.1224351355 2.1660016951 2.2288893271 2.2437032117 2.2184161851 2.166778757 
0 0 0 0 0 0 0 0 0 
0 0 0 0 0 0 0 0 0 
0 0 0 0 0 0 0 0 0 
0 0 0 0 0 0 0 0 0 
0 0 0 0 0 0 0 0 0 
0 0 0 0 0 0 0 0 0 
0 0 0 0 1.5606575225 0 1.8826900498 0 2.0346078071 
2.1921131104 0 0 2.5354900561 2.854222552 0 3.0213230062 0 3.021490767 
0 0 2.9330408234 0 0 2.9268068111 0 0 2.8252095923 
0 0 0 0 2.7667836375 0 2.6741603359 0 2.7048933509 
0 2.7227095547 0 2.7243590625 0 0 2.5326582404 0 2.5075446572 
0 2.5454559831 0 0 2.5916875776 0 0 2.6538832 0 
0 2.5149610141 0 0 2.5455786478 2.6150580197 0 2.6221430766 0 
0 2.6063637534 0 2.4757357855 0 2.3812018201 2.3784094072 0 0 
2.3736544598 0 2.4469374721 0 0 2.4894180572 0 2.4209388141 0 
2.3965598966 0 1.0545937922 1.9960368603 2.1128324032 2.0932252772 2.4380243745 2.4180231425 1.9357355586 
2.4183717607 1.8764581411 2.3271133861 2.3572824311 1.8812860935 2.3207171375 2.3585156035 2.3158407785 1.8732753859 
2.3699498888 2.2716937656 1.7721151412 1.7684914596 1.978651946 2.1133345716 2.2154987501 2.3710150279 2.4831480877 
2.3436060526 0 0 0 0 0 0 0 0 
0 0 0 0 0 0 0 0 0 
0 0 0 0 0 0 0 0 0 
0 0 0 0 0 0 0 0 0 
0 0 0 0 0 0 0 0 0 
0 0 0 0 0 0 0 0 0 
0 0.29895050025 0 1.8688164345 2.0593119387 2.1275876602 0 0 2.2659599361 
2.5762898686 0 2.8453375134 0 0 2.9112562189 2.9010561662 0 2.9237671115 
0 0 2.9032534753 0 2.8406024771 0 2.860254865 0 2.8816149731 
0 2.8780186655 2.8519330821 0 0 2.8422667618 0 2.6968600183 0 
0 2.5083105249 0 2.4048121179 0 2.5081674017 0 2.6084393586 0 
2.563708248 0 2.7243414145 2.7210712894 0 0 2.6959761467 0 0 
2.6223159318 0 2.6527785418 0 0 2.6437584553 2.5955339098 0 0 
2.4904881646 2.3525999064 0 0 2.3368101129 2.3392159965 0 0 0 
2.3932238142 2.5012161469 0 2.5450462764 2.4637958324 0 2.4185181609 0 1.6460193354 
2.1319128051 2.1425110789 2.4041660784 2.0388328714 2.4267933856 1.9455100702 2.4764625469 1.9287320533 2.4413111252 
2.5064295982 1.8552176732 2.3783406873 1.7587062474 2.356895968 2.3584840809 1.7772290908 2.4733512492 1.7306334718 
1.7308595383 2.3974285358 1.7212532873 1.8955890721 2.1253146163 2.1770516042 2.1789604955 2.3845770693 2.4699036743 
2.7089265405 0 0 0 0 0 0 0 0 
0 0 0 0 0 0 0 0 0 
0 0 0 0 0 0 0 0 0 
0 0 0 0 0 0 0 0 0 
0 0 0 0 0 0 0 0 0 
0 0 0 0 0 0 0 0 0 
0 0 0 0 0 0 0 0 0 
0 1.1152916918 0 1.5307732041 1.8057391073 0 1.987544789 0 2.1637777992 
0 2.3090875339 0 2.6051422551 2.7799244003 0 0 2.7979766382 0 
2.8157070815 2.9022228363 0 0 2.8705103865 2.816833078 0 0 2.8774552605 
0 0 2.8337559151 0 2.8821678051 0 2.7394748854 0 2.5962851362 
2.5271517974 0 0 0 0 2.7389376234 0 2.8607926707 0 
2.8869174657 2.8200924556 0 2.813267353 0 2.7367092242 0 0 2.7157188198 
0 2.7116562102 0 2.5732707728 0 2.4129739126 2.3376140612 0 2.3384431999 
0 2.3358291286 0 0 2.4593707071 2.5189385131 0 2.4795182387 0 
2.4357128938 0 2.4557250812 0 2.4547425147 1.8974975617 2.1249761154 2.4140476278 2.1922907903 
2.1080688059 2.4063600281 1.9629219215 1.8825807788 2.4836067371 2.4228105181 2.4127567481 1.6828899499 1.6249797363 
2.6036109864 2.4765823989 1.6343150971 2.7850277983 2.783678484 2.646797937 2.5469650968 2.5661729054 1.7085384299 
2.3081812278 0 0 0 0 0 0 0 0 