# vtk DataFile Version 4.2
vtk output
ASCII
DATASET POLYDATA
POINTS 20000 double
-21.321294102 4.34276604 -4.2465056294 -21.306836588 5.1053439022 -4.8647992191 -21.637365079 5.1054813046 -3.9227165473 
-21.365478196 3.930099933 -4.9884642916 -21.24913306 4.7047908209 -5.7182993981 -21.937266901 5.4194845249 -5.526704416 
-22.03217393 4.8379636056 -3.0155591487 -21.872426314 4.1501699754 -3.4246646698 -22.357832631 5.6643542036 -3.6237786825 
-22.081961027 3.6223299947 -4.2477900426 -22.21825659 5.684073151 -4.5694302164 -21.783308463 3.9275589319 -5.7241697692 
-21.978170961 4.7148589806 -6.2228121341 -22.551061662 4.1553094793 -2.3583653055 -23.097505029 4.9387714545 -1.9057046817 
-22.69293727 5.303691236 -2.6343133383 -22.618941555 3.6034755019 -3.2399183059 -23.059126938 6.0187214203 -3.2487980197 
-23.080852103 6.3608162532 -4.2426826031 -22.4952648 3.5199103348 -5.1876302793 -22.816810171 6.0393994218 -5.2598193634 
-22.616152031 3.9349319202 -6.2020071681 -22.58821384 5.5353729951 -6.2416916273 -23.138320948 6.308615808 -6.1638343515 
-22.771507912 4.7686541425 -6.8347254781 -23.30329323 3.7868718321 -1.5940788219 -23.668858298 4.6964238885 -1.1450924358 
-23.887116701 5.625550061 -1.5429336541 -23.239408998 3.2564216117 -2.41279482 -23.682257412 5.924505164 -2.4019274243 
-23.464780233 2.9764333572 -3.3926149867 -23.85184813 6.4571544507 -3.3052918311 -23.024549763 3.2577873872 -4.1983079509 
-23.987897566 6.9325258635 -4.2175642164 -23.354734946 3.1545439638 -5.115406125 -23.510853601 6.8010663786 -5.1753978219 
-23.360903354 3.2965104976 -6.0546125829 -23.702385075 7.0211346038 -6.141298533 -23.13242445 3.6458715511 -6.9480999803 
-23.148940945 5.8035800622 -7.0594114915 -23.628767498 6.6810276084 -7.0944705629 -23.451295323 3.2346031565 -7.6983617194 
-23.067110394 4.4297785178 -7.618359084 -23.408414767 5.4012080539 -7.819999522 -23.775055496 6.4345508803 -7.9641233416 
-23.129661062 3.8940113326 -8.3270939141 -23.358343536 4.7865032593 -8.6153871558 -23.503280202 3.2486844779 -8.7368647134 
-23.336618453 4.0135377551 -9.3589689236 -23.43859383 0.61255159555 0.28343703526 -23.728095736 0.54286339812 1.0941166627 
-23.631860656 1.5878709578 0.39850982135 -23.895653452 1.4660464891 1.4241262094 -23.735869387 -0.35335422343 0.47146322685 
-23.56775826 -0.086021964522 -0.4401834827 -23.448988065 0.96109594409 -0.54566710205 -23.922019096 2.4845571117 9.0138171963e-05 
-23.77019808 1.8767522868 -0.81549911615 -23.808602532 3.7506722551 -0.71707942296 -23.878347049 2.896624263 -0.78668790072 
-24.138872376 4.4177245673 -0.19704533751 -24.262425525 5.4474106617 -0.62470892715 -23.749598107 -0.026265716533 -1.4307936595 
-23.676372662 0.96081225281 -1.394304856 -23.818068377 2.7272815984 -1.6677194727 -24.447424857 6.4658538724 -1.5108513839 
-23.889410859 2.433102324 -2.627896836 -24.47004887 6.7623317418 -2.5137637483 -24.560209399 7.1631041718 -3.4374779187 
-23.983969194 2.1723428983 -3.6145869722 -23.835399174 2.6631883539 -4.5212686694 -24.660363895 7.8559871934 -4.1955984956 
-24.631983201 8.9740082492 -4.6341012721 -24.195302791 7.4814525996 -5.0325316736 -24.661404624 9.8920921818 -4.9885050591 
-23.975813035 2.6047213231 -5.6985872675 -24.54248642 8.2982472603 -5.3071807718 -24.795846636 10.706202111 -5.4803186574 
-24.253498606 7.6825600129 -6.0212327995 -24.475403752 9.1324372668 -5.7803251489 -24.472995562 10.042621693 -6.1415938024 
-25.210198565 11.506641005 -5.7747381613 -23.95357316 2.7554831412 -6.7817887684 -24.532810027 8.3699106584 -6.5603657404 
-24.709122064 11.036073679 -6.485704972 -24.200495786 7.4942737321 -7.0643620152 -24.434947801 9.2777635546 -6.8876455674 
-24.467621867 10.243371302 -7.1754174863 -25.259940787 11.99535158 -6.7372817779 -24.722549021 11.182003977 -7.433053067 
-24.377405364 8.4177240133 -7.6004479594 -24.22710518 2.5852320839 -7.7170803644 -24.110570583 7.4877025156 -8.0927132081 
-24.376726854 9.4595249983 -7.9157683557 -24.501707176 10.456085997 -8.1964422198 -25.152616114 11.932507872 -7.7482235969 
-24.26776133 8.6001440271 -8.5611759193 -24.829273549 11.360758343 -8.5114409042 -24.197918156 2.6978266435 -8.7170967028 
-23.761678477 5.727618707 -8.7548948768 -23.976194948 6.7665333054 -8.9187427927 -24.37795306 9.64256596 -8.9594387132 
-24.148103747 7.771404753 -9.1659184548 -24.549620227 10.633004033 -9.2615591778 -23.815641735 3.1136213778 -9.6851473861 
-23.629181876 4.9491803577 -9.5967985849 -23.888572382 5.9659426473 -9.7232662916 -24.309173562 8.81129572 -9.6062990085 
-24.999857077 11.634867349 -9.4660702952 -24.051487267 6.9387951057 -9.9526845042 -24.427942137 9.8626078221 -10.062259065 
-23.634212481 3.9281835009 -10.348438593 -24.242964233 7.8854254862 -10.215794461 -24.721068364 10.961240316 -10.228778273 
-24.212259434 2.8782919873 -10.533712808 -23.774734073 5.1053012056 -10.523925436 -23.944444986 6.0890861192 -10.746430905 
-24.395749143 8.7820201076 -10.629164847 -24.203735712 7.0539760747 -10.975054132 -24.468861039 9.5620179165 -11.082380162 
-24.67205837 10.44139758 -11.077810068 -23.91661299 3.4874844137 -11.319327603 -23.746216875 4.4216402209 -11.252358428 
-24.520322997 7.9411375318 -11.289495071 -25.096641899 11.323011368 -11.188047794 -23.843244785 5.3530493377 -11.644568126 
-24.039571549 6.2803859305 -11.759536171 -24.639924329 8.828139621 -11.750620582 -24.456810116 7.1642230187 -12.020595895 
-24.74644512 9.8112840378 -12.01832364 -25.024733086 10.713080488 -12.096765556 -24.237008606 3.2724806743 -12.180987921 
-23.784791082 4.4329228465 -12.22717319 -23.873818393 3.8525007028 -12.871176589 -23.850267477 5.379809851 -12.74835647 
-24.070802165 6.354117196 -12.743681648 -24.490371733 7.3470312103 -13.05300097 -23.810519549 4.6709304756 -13.507513463 
-24.072950362 6.6011082654 -13.660715258 -24.037859218 3.7283471667 -13.831019777 -23.892658632 5.6081538492 -13.857855912 
-24.414060307 7.5496901537 -14.085964448 -24.062661695 4.3688332847 -14.514653559 -24.074581779 6.5959326184 -14.59590686 
-24.030344026 5.4206563421 -14.873183056 -24.549151542 7.6109752493 -15.085379697 -24.220243232 6.3810670893 -15.459318626 
-24.599435453 7.1565248248 -15.942063088 -24.464342198 5.4656052035 -15.8914503 -24.51600561 3.1165080979 3.4111049783 
-24.90298165 3.9047229406 3.6984277085 -24.85474254 2.2131014622 3.2706449793 -24.316475239 3.7833464272 2.6828825662 
-24.793581838 4.6599616632 3.003914625 -24.285358293 2.7343439898 2.5699560242 -24.459986187 1.5774506023 2.4883859131 
-24.375251373 4.5091007261 1.9586918234 -24.855161411 5.4290576644 2.2328210385 -24.217008301 0.66089027598 1.9948731722 
-24.146513339 2.2947125071 1.8194456034 -24.198330742 3.3985277685 1.6158162472 -24.160467242 -0.29244261961 1.4737931732 
-24.528016837 5.3681060809 1.3051361234 -25.508017054 6.0988803268 1.9788614151 -24.039952242 2.5291971882 0.92565657345 
-24.242648404 4.2716182258 0.97388182528 -24.92760383 6.3114831867 1.2138257486 -24.26538777 -1.0621934892 0.82991097255 
-24.093551306 3.4597959803 0.36761514397 -24.372804345 5.0753351665 0.36872391419 -24.590690492 5.9858363733 0.35719029009 
-24.999191826 6.9953145738 0.28751198384 -24.245538058 -1.1158816272 -0.10371386068 -24.597192062 6.3755625929 -0.52641511685 
-24.041728804 -0.83775167921 -0.92531614843 -24.868241902 7.2631250673 -0.72532624748 -25.323258118 7.9983533867 -0.89782542206 
-25.789609914 7.6318528222 0.086970490529 -24.162874459 -1.0502632211 -1.7871996116 -23.94095327 1.7513839605 -1.8809217224 
-24.793272193 7.4868009856 -1.8126878563 -25.102833954 8.4610081726 -1.9797570055 -23.927381851 -0.3683102867 -2.437117308 
-23.886526143 0.66284886736 -2.2394805453 -25.635647563 9.3831963769 -2.2464342457 -24.34614058 -1.282976726 -2.7510644662 
-23.997756637 1.4227867368 -2.8800543342 -24.836317396 7.9370512601 -2.8988156291 -25.081124716 9.0531278561 -2.933678639 
-23.963237927 -0.69256276409 -3.4740255146 -23.92354638 0.33433032306 -3.1769307806 -25.623874073 9.9751201904 -3.1585069414 
-24.003155613 1.1259909008 -3.839793033 -24.825900944 8.7137512389 -3.7266192824 -24.194547687 -1.4345996203 -4.117898276 
-23.908023139 0.15112738653 -4.1739497894 -25.03704397 9.7953117904 -3.9743557795 -25.888414495 10.643451289 -3.8741097445 
-23.898361704 -0.72296620692 -4.5962921061 -24.067248338 1.8162331243 -4.5508145522 -24.011825973 0.90501544453 -4.866263879 
-25.325963025 10.758752843 -4.6488106113 -24.309388502 -1.7251581374 -5.0177985985 -23.93570445 0.033084256126 -5.3098940035 
-25.815262675 11.551347598 -5.0893769092 -23.960411308 -0.95144213551 -5.6158199019 -24.160645085 1.7798513806 -5.4918973445 
-24.202775695 0.91409202596 -5.9061324938 -24.184282698 -0.062322764779 -6.3247777442 -25.894799728 12.263050136 -5.9211531698 
-24.245910295 -0.96784226606 -6.5713119386 -24.43036449 1.8405999264 -6.5342705803 -25.994704309 12.809119972 -6.6896409664 
-24.83223004 1.7668117297 -7.449400108 -25.557565856 12.74941131 -7.6385834104 -26.257631225 13.308339849 -7.5551939115 
-25.762980922 13.271268726 -8.6130498042 -24.933846587 2.141506161 -8.4542442392 -25.333362735 12.325974212 -8.668501746 
-24.730352516 2.4342137272 -9.555189468 -25.461387643 12.683946876 -9.5869800725 -26.469490736 13.570772576 -8.9952939529 
-26.05715348 13.489536432 -9.8102613505 -25.233931939 11.965861864 -10.386677772 -25.585276102 12.939379121 -10.602363672 
-26.317405362 13.522042911 -10.834213811 -24.798344494 2.8103196113 -11.467128179 -25.402533936 12.287271658 -11.394624132 
-25.814511777 13.240370656 -11.646272441 -25.275349641 11.603682429 -12.205834452 -24.770104405 8.0800467659 -12.36877995 
-25.478954649 12.576108821 -12.371822391 -24.900830441 9.0935998595 -12.753217261 -25.03942072 10.120688479 -13.007914046 
-25.83960096 13.358164989 -12.766503361 -24.437898362 3.1429564202 -13.194990804 -25.122127501 2.840721893 -12.464195773 
-25.178971593 11.026796413 -13.207167734 -25.34415555 11.954947797 -13.143544016 -24.819421719 8.3247673559 -13.419278125 
[...]
POINT_DATA 20000
SCALARS thickness%20(mm) double
LOOKUP_TABLE default
0 0 0 0 0 0 0 0 0 
0 0 0 0 0 0 0 0 0 
0 0 0 0 0 0 0 0 0 
0 0 0 0 0 0 0 0 0 
0 0 0 0 0 0 0 0 0 
0 0 0 0 0 0 0 0 0 
0 0 0 0 0 0 0 0 0 
0 0 0 0 0 0 0 0 0 
0 0 0 0 0 0 0 0 0 
0 0 0 0 0 0 0 0 0 
0 0 0 0 0 0 0 0 0 
0 0 0 0 0 0 0 0 0 
0 0 0 0 0 0 0 0 0 
0 0 0 0 0 0 0 0 0 
0 0 0 0 0 0 0 0 0 
0 0 0 0 0 0 0 0 0 
0 0 0 0 0 0 0 0 0 
0 0 0 0 0 0 0 0 0 
0 0 0 0 0 0 0 0 0 
0 0 0 0 0 0 0 0 0 
0 0 0 0 0 0 0 0 0 
0 0 0 0 0 0 0 0 0 
0 0 0 0 0 0 0 0 0 
0 0 0 0 0 0 0 0 0 
0 0 0 0 0 0 0 0 0 
0 0 0 0 0 0 0 0 0 
0 0 0 0 0 0 0 0 0 
0 0 0 0 0 0 0 0 0 
0 0 0 0 0 0 0 0 0 
0 0 0 0 0 0 0 0 0 
0 0 0 0 0 0 0 0 0 
0 0 0 0 0 0 0 0 0 
0 0 0 0 0 0 0 0 0 
0 0 0 0 0 0 0 0 0 
0 0 0 0 0 0 0 0 0 
0 0 0 0 0 0 0 0 0 
0 0 0 0 0 0 0 0 0 
0 0 0 0 0 0 0 0 0 
0 0 0 0 0 0 0 0 0 
0 0 0 0 0 0 0 0 0 
0 0 0 0 0 0 0 0 0 
0 0 0 0 0 0 0 0 0 
0 0 0 0 0 0 0 0 0 
0 0 0 0 0 0 0 0 0 
0 0 0 0 0 0 0 0 0 
0 0 0 0 0 0 0 0 0 
0 0 0 0 0 0 0 0 0 
0 0 0 0 0 0 0 0 0 
0 0 0 0 0 0 0 0 0 
0 0 0 0 0 0 0 0 0 
0 0 0 0 0 0 0 0 0 
0 0 0 0 0 0 0 0 0 
0 0 0 0 0 0 0 0 0 
0 0 0 0 0 0 0 0 0 
0 0 0 0 0 0 0 0 0 
0 0 0 0 0 0 0 0 0 
0 0 0 0 0 0 0 0 0 
0 0 0 0 0 0 0 0 0 
0 0 0 0 0 0 0 0 0 
0 0 0 0 0 0 0 0 0 
0 0 0 0 0 0 0 0 0 
0 0 0 0 0 0 0 0 0 
0 0 0 0 0 0 0 0 0 
0 0 0 0 0 0 0 0 0 
0 0 0 0 0 0 0 0 0 
0 0 0 0 0 0 0 0 0 
0 0 0 0 0 0 0 0 0 
0 0 0 0 0 0 0 0 0 
0 0 0 0 0 0 0 0 0 
0 0 0 0 0 0 0 0 0 
0 0 0 0 0 0 0 0 0 
0 0 0 0 0 0 0 0 0 
0 0 0 0 0 0 0 0 0 
0 0 0 0 0 0 0 0 0 
0 0 0 0 0 0 0 0 0 
0 0 0 0 0 0 0 0 0 
0 0 0 0 0 0 0 0 0 
0 0 0 0 0 0 0 0 0 
0 0 0 0 0 0 0 0 0 
0 0 0 0 0 0 0 0 0 
0 0 0 0 0 0 0 0 0 
0 0 0 0 0 0 0 0 0 
0 0 0 0 0 0 0 0 0 
0 0 0 0 0 0 0 0 0 
0 0 0 0 0 0 0 0 0 
0 0 0 0 0 0 0 0 0 
0 0 0 0 0 0 0 0 0 
0 0 0 0 0 0 0 0 0 
0 0 0 0 0 0 0 0 0 
0 0 0 0 0 0 0 0 0 
0 0 0 0 0 0 0 0 0 
0 0 0 0 0 0 0 0 0 
0 0 0 0 0 0 0 0 0 
0 0 0 0 0 0 0 0 0 
0 0 0 0 0 0 0 0 0 
0 0 0 0 0 0 0 0 0 
0 0 0 0 0 0 0 0 0 
0 0 0 0 0 0 0 0 0 
0 0 0 0 0 0 0 0 0 
0 0 0 0 0 0 0 0 0 
0 0 0 0 0 0 0 0 0 
0 0 0 0 0 0 0 0 0 
0 0 0 0 0 0 0 0 0 
0 0 0 0 0 0 0 0 0 
0 0 0 0 0 0 0 0 0 
0 0 0 0 0 0 0 0 0 
0 0 0 0 0 0 0 0 0 
0 0 0 0 0 0 0 0 0 
0 0 0 0 0 0 0 0 0 
0 0 0 0 0 0 0 0 0 
0 0 0 0 0 0 0 0 0 
0 0 0 0 0 0 0 0 0 
0 0 0 0 0 0 0 0 0 
0 0 0 0 0 0 0 0 0 
0 0 0 0 0 0 0 0 0 
0 0 0 0 0 0 0 0 0 
0 0 0 0 0 0 0 0 0 
0 0 0 0 0 0 0 0 0 
0 0 0 0 0 0 0 0 0 
0 0 0 0 0 0 0 0 0 
0 0 0 0 0 0 0 0 0 
0 0 0 0 0 0 0 0 0 
0 0 0 0 0 0 0 0 0 
0 0 0 0 0 0 0 0 0 
0 0 0 0 0 0 0 0 0 
0 0 0 0 0 0 0 0 0 
0 0 0 0 0 0 0 0 0 
0 0 0 0 0 0 0 0 0 
0 0 0 0 0 0 0 0 0 
0 0 0 0 0 0 0 0 0 
0 0 0 0 0 0 0 0 0 
0 0 0 0 0 0 0 0 0 
0 0 0 0 0 0 0 0 0 
0 0 0 0 0 0 0 0 0 
0 0 0 0 0 0 0 0 0 
0 0 0 0 0 0 0 0 0 
0 0 0 0 0 0 0 0 0 
0 0 0 0 0 0 0 0 0 
0 0 0 0 0 0 0 0 0 
0 0 0 0 0 0 0 0 0 
0 0 0 0 0 0 0 0 0 
0 0 0 0 0 0 0 0 0 
0 0 0 0 0 0 0 0 0 
0 0 0 0 0 0 0 0 0 
0 0 0 0 0 0 0 0 0 
0 0 0 0 0 0 0 0 0 
0 0 0 0 0 0 0 0 0 
0 0 0 0 0 0 0 0 0 
0 0 0 0 0 0 0 0 0 
0 0 0 0 0 0 0 0 0 
0 0 0 0 0 0 0 0 0 
0 0 0 0 0 0 0 0 0 
0 0 0 0 0 0 0 0 0 
0 0 0 0 0 0 0 0 0 
0 0 0 0 0 0 0 0 0 
0 0 0 0 0 0 0 0 0 
0 0 0 0 0 0 0 0 0 
0 0 0 0 0 0 0 0 0 
0 0 0 0 0 0 0 0 0 
0 0 0 0 0 0 0 0 0 
0 0 0 0 0 0 0 0 0 
0 0 0 0 0 0 0 0 0 
0 0 0 0 0 0 0 0 0 
0 0 0 0 0 0 0 0 0 
0 0 0 0 0 0 0 0 0 
0 0 0 0 0 0 0 0 0 
0 0 0 0 0 0 0 0 0 
0 0 0 0 0 0 0 0 0 
0 0 0 0 0 0 0 0 0 
0 0 0 0 0 0 0 0 0 
0 0 0 0 0 0 0 0 0 
0 0 0 0 0 0 0 0 0 
0 0 0 0 0 0 0 0 0 
0 0 0 0 0 0 0 0 0 
0 0 0 0 0 0 0 0 0 
0 0 0 0 0 0 0.65835134613 0 0 
0 0.53919954093 0 0 0 0.43065980002 0 0 0 
0 0 0 0 0 0 0 0 0 
0 0 0 0 0 0 0 0 0 
0 0 0 0.80303575614 0 0 0 0 0 
0 0 0 0 0 0 0 0 0 
0 0 0 0 0 0.62580158634 0 0.81917189149 0 
0 0 0 1.121952432 0 0 0 0 0 
0.074152804154 0 0 0 0 0.59642685102 0 0 0 
0 0 0 0 0 0 0 0 0 
0 0 0 0 0 0 0 0 0 
0 0 0 0 0 0 0 0 0 
0 0 0 0 0 0 0 0 0 
0 0 0 0 0 0 0 0 0 
0 0 0 0 0 0 0 0 0 
0 0 0 0 0 0 0 0 0 
0 0 0 0 0 0 0 0.91177107212 0 
0 1.2286905853 0 1.3778040187 0 0 1.4599047707 0 1.4380997071 
0 0 1.1758491326 0 0 0 0 0 1.3228674337 
0 0 0 0 0 0 1.2602463313 0 0 
0 0 0 0 1.2799722275 0.62218932886 0 0.48119972186 0 
0.83410652742 0 0 0.88498020821 0 0 0 0 0.77713068857 
0 0 0 1.2452947977 0 0.77304173424 0 0 0 
0 1.0054669234 0 0 0 0 0 1.0828105072 0 
0.42384086826 0 0 0 0.77750868257 0 0 0 0 
0 0 0.93026647538 0 0 0 0 1.4273084682 0 
0 1.4408589785 0 0 0 0 0 1.2736818104 0 
1.2774600073 0 0 0 0 0 0.9646514103 0 0 
0 0 0 0 0 0 0 0 0 
0 0 0 0 0 0 0 0 0 
0 0 0 0 0 0 0 0 0 
0 0 0 0 0 0 0 0 0 
0 0 0 0 0 0 0 0 0 
0 0 0 0 0 0 0 0 0 
0 0 0 0 0 0 0 0 0.4399905522 
0 0 1.396237877 1.3161940872 0 0 1.6296916835 0 1.415695234 
0 0 1.670395616 0 0 0 0 0 1.8767911945 
0 1.8469168506 0 1.7533692995 0 1.863051414 0 1.7366863889 0 
0 1.7330178277 0 0 1.7366986381 0 0 1.5692068322 0 
1.4505950942 0 0 0 0 1.4173202617 0 0 1.3220708596 
1.3660052691 0 0 1.4146134578 0 1.3404199349 0 0 1.4407394191 
0 1.3088721156 0 0 0 0 1.3002467331 1.4022957845 0 
0 0 0 0 0 0 0 0 1.1533586107 
0 0 0 1.1799337295 0 0 0 0 1.4436274088 
0 0 0 0 0 0 0 1.5771698944 0 
1.5371118811 0 1.4941424289 0 0 1.2460784316 0 0 0.88538336552 
0 0 0.88212428839 0 0 0 0.059915865276 0.62033733224 0 
0 0.6523699334 0 0 0 0 0.68224128197 0 0 
0 0.52477952959 0 0 0 0 0 0 0 
0 0 0 0 0 0 0 0 0 
0 0 0 0 0 0 0 0 0 
0 0 0 0 0 0 0 0 0 
0 0 0 0 0 0 0 0 0 
0 0 0 0 0 0 0 0 1.6417111533 
0 0 0 1.9189426167 0 0 1.8756470797 0 1.8443542358 
0 0 1.8432800748 0 0 0 0 0 0 
1.9337343036 0 0 0 0 1.9159096493 0 0 1.8820736188 
0 1.8328111903 0 1.7682579875 0 1.6860757722 0 1.6043219008 0 
0 0 0 0 1.5627133516 0 1.5461442409 0 0 
0 0 0 1.5029877443 0 1.4335262428 0 0 0 
0 1.4808932434 1.3858846572 0 1.3803013423 0 0 1.351753019 0 
1.4295874151 0 1.5813912804 1.5104560634 0 0 0 0 0 
1.5547344624 0 1.5119230126 0 0 1.3785395281 0 0 0 
0 0 0 1.1429715187 0 0 0 0 0 
1.1496364095 0 0.93457233134 1.150345852 0 1.0703735829 0 0 0.82917183342 
0.93242250011 0 1.0236172216 1.0584691804 1.084875953 0 0 0 0.71913157336 
1.0469969111 0 0.57157847648 0 0 0 0 0 0 
0 0 0 0 0 0 0 0 0 
0 0 0 0 0 0 0 0 0 
0 0 0 0 0 0 0 0 0 
0 0 0 0 0 0 0 0 0 
0 0 0 0 0 0 0 0 1.0011434504 
0 1.4866209813 0 1.9429497158 0 0 2.080906223 0 2.023049057 
0 0 2.0993350643 0 2.0025055796 0 0 2.1335192517 0 
0 2.0394102485 0 0 0 2.0561128739 0 0 2.0379610789 
0 0 1.9994864014 0 0 0 1.9564078144 0 0 
1.8910690625 0 0 0 1.9034295009 0 1.8510029502 0 1.7730856971 
0 1.6446206232 0 1.5623803943 0 0 1.553300401 0 0 
1.6381867411 0 1.6213119395 1.5516860994 0 0 0 0 1.5233783047 
1.4529833189 0 0 1.498861045 0 1.4203025335 0 0 1.3840096757 
1.4172077683 0 0 1.4873251853 0 0 1.5336889536 0 0 
1.3902316693 0 1.2362898581 1.2506155584 0 0 1.2107686485 0 0 
1.2351751753 0 1.1718080975 0 1.1678826987 1.1568429421 0.33149690234 0.45915761186 0.50728271386 
1.201260002 0 1.0421307151 1.1986949398 0 0 0 0 0 
0 0 0 0 0 0 0 0 0 
0 0 0 0 0 0 0 0 0 
0 0 0 0 0 0 0 0 0 
0 0 0 0 0 0 0 0 0 
0 0 0 0 0 0 1.0071188243 0 0 
1.6612416208 1.8411311653 0 1.9416065935 0 2.0991234408 0 0 2.1598942917 
0 2.1492512221 0 0 0 0 0 2.1517582366 0 
0 2.1519755525 0 2.127898268 0 0 2.0463153912 0 1.9768591246 
0 0 0 1.8825421143 0 0 0 0 0 
1.7775155866 0 1.685454724 1.6421002344 0 1.6604163023 0 0 0 
0 0 1.6405373728 0 0 1.5489866922 0 1.4962661093 0 
0 0 1.3878899054 0 0 1.4387805287 0 1.4627882484 1.4682673786 
0 1.4164635243 0 0 1.2997599277 0 1.2155218011 0 0 
1.2383801979 0 1.2565087286 0 0.42885915207 0 1.2182625335 1.3051277077 1.2783419109 
0.92023639431 1.1678265397 0.95924888022 1.1545148811 0.77312813802 0.69633611008 0.67618345587 0.75082617702 0.8246721793 
1.0052723579 0 0 0 0 0 0 0 0 
0 0 0 0 0 0 0 0 0 
0 0 0 0 0 0 0 0 0 
0 0 0 0 0 0 0 0 0 
0 0 0 0 0 0 0 0 0 
0 0 0 0 1.8680247632 0 2.0274577175 0 2.0493205481 
0 0 2.1808294772 0 0 2.2418344745 0 0 0 
2.2265873127 0 0 2.2133958203 0 2.1991808074 0 2.2014667848 0 
0 2.1666189298 2.1179759147 0 2.0743814396 0 1.957679887 0 1.8292362746 
0 1.7792144311 0 1.8024467448 0 1.8291833831 0 0 1.8374673105 
0 0 1.7552646731 0 0 0 1.6776790766 0 1.7229360041 
0 1.7141198992 1.6938012903 0 0 1.6836396406 1.6327231876 0 0 
1.5272463774 0 1.5724548004 0 0 1.4361469122 0 0 1.4155584924 
1.4584508848 0 1.452193184 0 1.4883485995 0 0 1.4398293654 0 
1.3488144895 1.2025878238 0 1.1673120836 0 1.1705594487 0 1.2453562958 0 
0 1.2621620442 1.2826160285 0 0 1.2740937758 0.86164670395 1.3153691479 1.3419494358 
1.2203121517 1.330488608 1.303883615 1.4404594479 1.2982177011 1.2374282398 1.2073798504 1.2453356128 1.3017156226 
0 0 0 0 0 0 0 0 0 
0 0 0 0 0 0 0 0 0 
0 0 0 0 0 0 0 0 0 
0 0 0 0 0 0 0 0 0 
0 0 0 0 0 0 0 0 0 
0 0 1.4444713983 0 0 0 2.2050273976 0 0 
2.1663682861 0 0 0 2.2401200178 0 0 0 2.3379151989 
0 2.3085766715 2.2644546202 0 2.2182620867 0 0 2.2343022711 0 
0 2.1873833173 0 0 0 0 1.8148856254 0 1.7906784287 
0 1.8576009963 0 1.8975792183 0 1.8476216454 0 0 0 
1.7084131457 0 0 0 1.6803285118 0 1.6596547938 1.6271109067 0 
0 1.5463763678 0 0 1.5502378386 1.5163976421 1.4694310795 0 0 
1.4145025083 1.3691886583 0 1.2683506248 0 1.1199190054 0 1.1157239376 0 
1.096451961 0 1.1115253384 0 1.13015403 1.2109863393 0 0.82243376739 1.2537863637 
1.1293802492 1.2094150487 1.3921315199 1.308757365 1.4097062629 1.3432558934 1.3235907244 1.4958765252 1.5870908286 
1.6020294054 1.4646001262 1.5600089751 1.5094619511 1.6002872958 1.458301269 1.4899106266 0 0 
0 0 0 0 0 0 0 0 0 
0 0 0 0 0 0 0 0 0 
0 0 0 0 0 0 0 0 0 
0 0 0 0 0 0 0 0 0 
0 0 0 0 0 0 0 0 0 
0 0 0 2.012339213 2.2956549425 0 2.3112037062 0 0 
0 2.3181266215 0 0 2.2445855716 0 2.2638211332 0 2.2975349266 
2.3322236572 0 0 0 2.3035453962 2.2828144175 0 2.2249238492 0 
0 0 0 2.1101337001 0 0 2.0063761886 0 1.8978565563 
0 0 1.8431193846 0 0 1.8508317508 0 0 1.9057995616 
0 0 1.9242466938 1.8798448396 0 0 1.7790072087 0 0 
1.7696078913 0 0 0 1.6337270457 0 1.6002383398 0 0 
1.6367168218 0 1.6356357322 1.5843850159 0 0 0 1.5964827137 0 
1.5981992025 0 1.4999627717 1.3421439214 0 1.3007660909 0 1.3203236931 0 
1.2614579628 1.1824078192 0 1.1457260282 0 1.0612133976 0.73875345732 1.1859629128 1.1762131105 
1.1423089281 1.5074581165 1.6599052344 1.236057011 1.7447253771 1.7749979007 1.4941435891 1.3604437832 1.6920329694 
1.7584808998 1.4994764736 1.7586177643 1.6459135491 1.6515071628 1.5726775603 0 0 0 
0 0 0 0 0 0 0 0 0 
0 0 0 0 0 0 0 0 0 
0 0 0 0 0 0 0 0 0 
0 0 0 0 0 0 0 0 0 
0 0 0 0 0 0 0 0 0 
0 0 0 0.32870649126 1.5417832618 0 0 0 0 
2.4017150709 0 2.4759036469 0 0 2.4362686387 2.3930640592 0 2.3578148141 
0 0 2.3188975158 0 2.3210738368 0 2.3118777569 0 0 
2.2580589906 0 2.2246879622 0 0 2.179995123 0 2.0734402109 0 
1.9574623036 0 1.9216238833 0 1.9178551427 0 0 1.8293479349 0 
0 0 1.8794771427 0 0 0 1.9300562611 0 1.8695759991 
0 1.7603078561 0 0 1.6472095541 0 1.6556921915 0 1.6378041208 
0 0 1.6194949775 0 0 1.5992602592 0 1.6289187288 0 
0 1.5560388583 0 1.3374681376 1.3052310601 1.3339760913 0 1.3391538929 0 
1.0852673976 0 1.1621636565 1.1582582058 1.1884247932 1.246914595 1.949279738 1.3426572808 1.280824063 
1.884216231 1.8828298007 1.5652605174 1.4505181169 1.7675400662 1.8272846692 1.6835461687 1.5201096288 1.6311004766 
0 0 0 0 0 0 0 0 0 
0 0 0 0 0 0 0 0 0 
0 0 0 0 0 0 0 0 0 
0 0 0 0 0 0 0 0 0 
0 0 0 0 0 0 0 0 2.1411064053 
0 0 0 0 2.4753362788 0 2.4984279929 0 2.3535623347 
0 0 0 2.3468697157 0 2.334246092 0 2.2931898708 0 
2.2865488214 0 0 2.2915609079 2.2460733076 0 0 0 2.1800051949 
0 0 2.1206844631 0 2.05892041 0 1.9784092538 0 0 
1.9820768553 0 0 0 1.9181696711 0 0 1.9321953484 0 
0 1.9409894552 0 1.9195838598 0 1.8754936844 0 1.8406212311 0 
1.7503185443 0 0 1.7360036954 0 1.691143186 0 1.6726606387 1.6852119734 
0 1.6728359155 0 1.6320090051 0 1.6139929137 1.4282845729 0 0 
0 0 1.3636669757 0 1.3066791524 0 0.036734656934 1.2036578381 0.96758235972 
1.1688433343 1.276916669 1.4153672036 1.7342925285 1.6386097174 1.3685097908 1.7990968921 1.8957444849 1.2759674916 
1.9984062496 1.9489318315 1.5035604383 1.8362244775 1.7760054501 1.6143313213 1.502976043 1.4694471245 1.8058279338 
1.7721558965 1.5198328323 0 0 0 0 0 0 0 
0 0 0 0 0 0 0 0 0 
0 0 0 0 0 0 0 0 0 
0 0 0 0 0 0 0 0 0 
0 0 0 0 0 0 0 0 0 
0 0 0 0 0 0 0 0 0 
1.6792744286 0 0 0 2.2836610941 0 2.4200550667 0 0 
0 2.5987183785 0 0 2.4938302242 0 0 2.4219747521 0 
0 0 2.352540478 0 2.2987090233 0 2.3001685306 0 0 
0 0 0 2.131648538 0 2.1229057095 0 0 0 
1.888909683 0 1.9885632322 0 1.9585420911 0 0 1.9348663163 0 
1.9419145221 0 0 1.8030282165 0 1.7704331524 0 1.8017919758 0 
1.7761928387 0 1.7488019785 0 1.6865114115 0 1.7238793436 0 1.5789762155 
1.4681283437 0 1.3829449671 0 0 1.4056145155 1.402314499 1.3881553359 1.453723945 
1.5805770904 1.3801957365 1.7113779888 1.8640330461 1.9659170224 1.4021821739 2.0481419077 2.0352310265 1.3576286583 
1.4987498099 1.3737821027 1.9149141496 1.8028816021 1.418928115 1.3963757382 1.7074803386 1.6763519166 1.5851238026 
1.5031702774 1.4054998267 1.3758405294 1.3302793398 0 0 0 0 0 
0 0 0 0 0 0 0 0 0 
0 0 0 0 0 0 0 0 0 
0 0 0 0 0 0 0 0 0 
0 0 0 0 0 0 0 0 0 
0 0 0 0 0 0 0 0 0 
0 0 0 0 0 0 0 0 0 
1.6212069655 0 2.0500956297 0 0 2.3361830071 0 2.5303590079 0 
0 2.6147879342 0 2.4545226224 0 0 2.4000619194 0 0 
0 0 2.3405639585 0 2.3124256075 0 2.2721539751 2.1957040569 0 
2.1602045384 0 0 0 2.0933886585 0 0 1.9580914411 0 
2.0042402591 0 2.0616915622 0 1.9376418427 0 1.9806090136 0 1.8872421749 
0 0 1.8169295899 0 1.8415336043 0 1.7646460447 0 1.7723538654 
0 1.7216015854 0 0 1.7382963833 0 1.677891603 1.5953006033 0.16666650148 
1.4869794757 0.66083333494 1.4984882133 0.8558621798 1.1152862513 1.4838564966 1.3852464057 1.8256219146 1.9078027917 
1.8859401196 1.4517509936 1.9173896847 1.5431212193 1.9877098704 1.5839158708 2.0508763356 2.067430673 2.054320443 
1.9628852379 1.4658621358 1.8962867803 1.3690736959 1.3858259244 1.8108007151 1.6553062646 1.682592616 1.5878378075 
1.4841162965 1.3553067367 0 0 0 0 0 0 0 
0 0 0 0 0 0 0 0 0 
0 0 0 0 0 0 0 0 0 
0 0 0 0 0 0 0 0 0 
0 0 0 0 0 0 0 0 0 
0 0 0 0 0 0 0 0 0 
0 0 0 0 0 1.044816663 0 1.8816629838 0 
2.1832393121 0 2.4493151544 2.6393508141 0 0 2.5628926864 0 2.5027023616 
0 2.4429780988 0 2.3879940411 0 2.3077133361 0 2.3393602605 0 
0 0 2.2552794447 0 0 2.1262584135 0 2.1307752232 0 
2.1704090792 0 2.1758669701 0 0 2.1376898525 0 2.0607268822 0 
2.0853132949 0 1.998434076 0 0 1.960948985 0 1.9855401733 1.9726454215 
0 0 1.9065499402 0 1.8409778596 0 1.8120221911 0 1.810460563 
0 0 1.7521622647 0 1.7421770266 1.7762399329 0 0 1.7976841134 
0 1.7402032843 0 1.7298365178 1.6559151292 1.2827490309 1.6021581483 1.5413660032 1.8501968811 
1.8436250676 1.5328745297 1.5888814282 1.9777423442 1.6753786558 1.9650734165 1.7165900469 2.0006258485 1.6966731534 
1.5963482481 1.9434545981 1.8379692858 1.3990688225 1.7884074179 1.6755285389 1.3971326 1.6604619803 1.5463983931 
1.4961041269 1.6045013812 1.4888332495 1.4392099142 1.412958116 0 0 0 0 
0 0 0 0 0 0 0 0 0 
0 0 0 0 0 0 0 0 0 
0 0 0 0 0 0 0 0 0 
0 0 0 0 0 0 0 0 0 
0 0 0 0 0 0 0 0 0 
0 0 0 0 0 0 0 1.3653446051 0 
2.0761714171 0 2.2674480543 0 0 2.5431414571 0 2.6341538997 0 
2.6068539661 0 0 2.4503347095 0 2.335383354 0 2.2948601633 0 
0 2.2959220212 2.2922983391 0 0 2.1916065589 0 0 2.2518743513 
0 2.2791935541 0 2.2113437325 0 0 0 2.0746832714 0 
2.0044695507 0 1.9571637399 0 0 1.9610016297 1.9155604717 0 1.8291352189 
0 0 1.7891928519 0 1.7418984701 0 1.7585021422 1.7640628507 0 
1.753046626 0 1.7800179721 0 1.7555850454 1.7318697338 0 1.4246805404 1.7562031351 
1.7155518579 1.4305155153 1.6169529915 1.6746429173 1.6806985063 2.0331075384 2.0169027575 1.7398162966 2.0545375475 
1.7537076604 2.0139698676 1.7959242838 2.0059455184 1.7816645703 1.9915931027 1.9948635891 1.5999336328 1.7129405984 
1.9812276761 1.5037967699 1.8446805491 1.5261707264 1.476064811 1.6309547747 1.5383627255 1.5010155892 1.6195363482 
1.4372988185 0 0 0 0 0 0 0 0 
0 0 0 0 0 0 0 0 0 
0 0 0 0 0 0 0 0 0 
0 0 0 0 0 0 0 0 0 
0 0 0 0 0 0 0 0 0 
0 0 0 0 0 0 0 0 0 
0 0 0 0 0 0 0 0 0 
1.2258019719 0 1.8347185271 0 0 2.1782268699 0 2.376416755 0 
0 2.570349022 2.6321579561 0 0 2.5758699142 0 0 2.3752683304 
0 2.2811349875 0 0 2.250793051 0 2.2772673955 0 0 
2.1446816582 2.0400246504 0 0 0 2.2559778038 0 2.1787413805 0 
2.1038939885 0 2.0527989993 0 2.01188492 0 0 0 0 
0 1.8708693459 0 1.8495656243 0 1.7929848203 0 0 0 
1.7263822664 1.7779456357 0 1.7810004893 0 1.7772961017 0 0 1.7272401891 
0 1.7559015668 1.7772093478 1.2049595112 1.8103739414 1.7171497074 1.7588026543 1.9142830027 1.9447511851 
1.775138562 2.1005161985 2.0899351453 2.0245608217 1.9940876245 1.9107060634 1.787531752 1.8374162909 1.7398632203 
1.6342826604 1.7172393247 1.6240380267 1.5852710641 1.6460923648 1.5800416261 1.5983324665 1.584712873 1.4544613372 
1.4391453764 1.4075621798 1.4158342462 0 0 0 0 0 0 
0 0 0 0 0 0 0 0 0 
0 0 0 0 0 0 0 0 0 
0 0 0 0 0 0 0 0 0 
0 0 0 0 0 0 0 0 0 
0 0 0 0 0 0 0 0 0 
0 0 0 0 0 0 0 0 0 
0 0.89516372646 0 0 1.7324901824 0 2.0355948013 0 0 
2.5095175243 0 0 2.6274692175 2.6325680425 0 0 2.520305642 0 
0 0 2.2448913068 0 0 2.2122351531 2.2085998552 0 0 
2.0859892596 0 2.0770978352 0 2.1061431713 2.1228456439 0 2.0282443448 0 
1.9901141602 0 0 1.9731186414 0 1.8814703814 1.9156350923 0 0 
1.8814715336 1.8062560151 0 1.7798280464 0 1.7331789089 0 1.7075631802 1.7433692965 
0 0 1.7530100052 1.7866376907 0 1.7628189572 0 1.7074721724 0 
1.7664303625 1.0496247635 1.8473204264 1.8146151993 1.8686852044 2.0887719543 1.8466795844 2.1078436953 1.8056838258 
2.2274589933 2.1504765742 1.8728186314 1.8560911261 2.0925532635 1.8994316216 1.9268279951 1.9631652549 1.9501049812 
1.8952890005 1.8830907692 1.8772096254 1.7886648504 1.669086593 1.6677907543 1.8326748388 1.551923583 1.6600531393 
1.5786546257 1.5186470881 1.6672640574 1.606041055 1.5672163622 1.3954410318 1.3756114927 1.3545831881 1.3836040163 
1.4964600299 0 0 0 0 0 0 0 0 
0 0 0 0 0 0 0 0 0 
0 0 0 0 0 0 0 0 0 
0 0 0 0 0 0 0 0 0 
0 0 0 0 0 0 0 0 0 
0 0 0 0 0 0 0 0 0 
0 0 0 0 0 0 0 0 0 
0 0 1.6702231905 0 0 1.9517080126 0 2.0756530847 0 
2.2432481181 0 2.4612929371 0 2.5737819647 0 2.6511415746 0 2.6264941321 
0 2.4331520473 0 0 2.3087590805 2.2211080264 0 0 0 
2.1659163695 2.1667525122 0 0 2.0178611343 0 1.9558894061 0 0 
1.9363020367 1.9309698761 0 0 1.9257190146 0 1.8046848941 0 1.7696654041 
0 0 0 1.6736416229 1.6492781861 0 0 1.6841526362 1.7055907876 
0 0 1.7859017922 0 1.7684878531 1.7362534718 0 1.7723150608 1.2335812443 
1.8148558347 1.9690240239 1.891345522 2.2180540322 1.8939919295 2.3505030708 2.3746698078 2.2549252832 2.3206000474 
2.259819331 1.8599952325 2.2379044492 2.1445030875 1.9675199728 1.9833034997 1.9746788314 2.0021201563 1.918230837 
1.8095417803 1.9984862287 1.9221191265 1.7952878403 1.8973583976 1.5461920097 1.8160621286 1.6296542464 1.6898332576 
1.7629767788 1.6602002195 1.4932182139 1.3182900114 1.3804990865 1.3995569138 0 0 0 
0 0 0 0 0 0 0 0 0 
0 0 0 0 0 0 0 0 0 
0 0 0 0 0 0 0 0 0 
0 0 0 0 0 0 0 0 0 
0 0 0 0 0 0 0 0 0 
0 0 0 0 0 0 0 0 0 
0 0 0 0 0 0 0 0 0 
0 0 0 0.72304861443 0 1.536712677 0 1.9270201606 0 
2.0496607869 0 2.1628095935 2.3701637602 0 2.5374731058 0 2.631852239 0 
2.570168816 0 2.5555355254 0 2.4767280536 0 2.3927701153 0 2.3097229213 
0 2.2187832957 0 2.2176212054 0 0 2.1214535633 0 2.0633705939 
0 1.994173117 0 2.0069482728 0 0 1.8494378671 0 1.7923677995 
0 1.7821497281 0 1.7086274434 0 1.7078734409 0 0 0 
1.646618619 0 0 1.7151831834 1.7824605152 1.7846838708 0 0 0 
1.3973745724 1.8077955592 2.0934205581 2.3733973066 1.9734933472 2.4543927388 1.9015604054 1.9925967333 2.2920481062 
1.9837140778 2.0997856178 2.0562633015 1.794922367 2.0092584327 1.7497140771 2.0055036636 2.0096441282 1.6790932471 
1.980244597 1.5243304997 1.8239142976 1.508607716 1.5943712818 1.5265754602 1.4407961897 1.4480067526 1.40375062 
1.4243629851 0 0 0 0 0 0 0 0 
0 0 0 0 0 0 0 0 0 
0 0 0 0 0 0 0 0 0 
0 0 0 0 0 0 0 0 0 
0 0 0 0 0 0 0 0 0 
0 0 0 0 0 0 0 0 0 
0 0 0 0 0 0 0 0 0 
0 0 0 0 0 0 0 0 0.70492535072 
0 1.8671524916 0 2.0209290927 0 2.100474384 0 2.2618490981 2.4484580853 
0 2.5795317826 0 2.5658752667 0 2.5362426481 0 0 0 
2.2690320931 0 2.1609597074 2.1169722591 0 0 0 1.9946891754 0 