# vtk DataFile Version 4.2
vtk output
ASCII
DATASET POLYDATA
POINTS 20000 double
-15.230297785 -9.7266533221 23.570017842 -14.990019974 -8.6142507178 23.307780293 -14.993198888 -7.4075749589 23.23075221 
-15.3277137 -8.0214269631 24.113550792 -15.046133946 -10.44133215 22.71164873 -14.855815321 -9.3090739815 22.503406828 
-14.951398114 -6.6184609763 22.611495411 -15.354759113 -11.448889544 22.810243126 -14.798042768 -8.0641949215 22.269501737 
-14.999112663 -11.29528032 21.790047383 -15.216668352 -5.5917321374 22.522523281 -14.834527084 -10.161731537 21.697881273 
-14.792592653 -8.9257365871 21.459110884 -14.781898474 -7.0623215313 21.667774349 -14.85842804 -5.9431706087 21.505510534 
-15.14653054 -12.01790301 20.999267438 -14.774720648 -7.8612401498 20.994649031 -15.222463967 -4.7353845009 21.923505934 
-14.850342232 -10.914192828 20.704868272 -14.805657605 -9.8132573501 20.714194784 -14.832121782 -5.1015904548 20.823192844 
-15.167770484 -3.9529414154 21.218458757 -14.758650285 -6.5749837804 20.522490382 -14.789683546 -8.8317047227 20.297386532 
-14.883410731 -4.2652993356 20.025229325 -15.234896204 -3.2390121011 20.332402382 -15.307045332 -12.737581433 20.124224455 
-14.903630173 -11.547105372 19.859367319 -14.812153771 -10.116129052 19.712592697 -14.772148197 -7.7015026485 19.901681199 
-14.754838947 -5.5725615085 19.799953822 -14.766684023 -6.7017037854 19.313438422 -14.976339494 -12.322430108 19.075000443 
-14.849786207 -10.872238675 18.91982159 -14.797283911 -8.8565480253 19.269896844 -14.931361273 -4.6140413186 19.031159975 
-15.263479258 -3.2352129213 19.252293318 -15.113772224 -13.215943339 18.443962234 -15.449420295 -13.606390683 19.411335285 
-14.867357449 -9.7577984215 18.597170369 -14.795686085 -7.7691638307 18.738108836 -14.878285125 -5.7679990255 18.624267624 
-14.974306662 -11.527132846 18.222872243 -15.081702822 -12.461511431 17.740135103 -15.107791161 -10.311046259 17.751572839 
-14.922224525 -8.7916459631 18.122112112 -14.934757838 -6.8448755757 18.079529034 -15.266478869 -4.9721529089 17.917960144 
-15.070639493 -7.9063837059 17.514720791 -15.346827303 -6.0281112808 17.447032347 -15.238328427 -13.533915456 17.214113793 
-15.357841788 -11.313002098 17.21565367 -15.312324285 -9.1849705386 17.177649502 -15.326525048 -12.332722874 16.701969228 
-15.2032288 -13.223805989 16.140522308 -15.402344057 -14.22122802 16.093465063 -15.235000821 -13.575152728 15.070062431 
-15.858719761 -9.2422542639 25.322767869 -15.737435206 -8.0002216863 25.130133611 -15.662153474 -10.2461572 24.628422479 
-16.143542337 -10.330227807 25.666803153 -15.460145357 -9.0485062117 24.389298489 -15.884544991 -6.7862836922 25.304041581 
-15.657392113 -5.994697249 24.61472424 -15.939354331 -11.558773507 24.434323719 -16.193792005 -11.197760091 25.310402311 
-15.426559911 -6.9918976882 24.23749024 -15.713761759 -4.9905797213 24.224836672 -15.496787434 -10.850003109 23.718311397 
-15.808983281 -12.065550495 23.480653246 -15.357123989 -6.0024523623 23.530066198 -15.795602273 -3.8841656727 23.846041315 
-15.465418666 -4.6841398079 23.11562789 -15.776462551 -2.854380403 23.407993802 -15.440742627 -3.6219838011 22.465881085 
-15.797892671 -1.6162786501 23.22563973 -15.543463525 -12.311065894 22.244107542 -16.227605664 -12.983791185 23.16108842 
-15.469647711 -2.3064780497 22.365496334 -15.457627376 -1.0154818216 22.18752806 -15.77964831 -0.33300837656 23.087395845 
-15.469273062 0.35727388465 22.112015348 -15.87718771 0.90524515459 23.102331558 -16.03450856 -13.299019833 22.207832838 
-15.81195703 1.7154373997 22.277902315 -15.371295472 -2.8148909854 21.398964985 -15.601856972 -12.975315735 21.287114944 
-15.379963481 -1.6020303657 21.203635428 -15.362520019 -0.31486162505 21.151741095 -15.441185353 1.2064992521 21.282287424 
-16.224101273 -14.113866982 21.626647048 -15.804341885 2.4302813124 21.250584235 -15.767954665 -13.765004704 20.626355915 
-15.348515594 0.5569187444 20.338467026 -15.370463562 -2.1634555967 20.219791162 -15.365132184 -0.89885963307 20.07752277 
-15.452366029 1.7888087336 20.227167194 -15.992303772 -14.487888206 20.040192008 -15.854492353 2.9785123135 20.195466501 
-15.35074911 0.10632880361 19.379403204 -15.383186287 1.2460277294 19.110982439 -15.646060955 2.3357361855 19.210492458 
-15.888508748 -14.690507552 19.044398373 -15.378436247 -1.938732089 19.149129954 -15.37070287 -0.78170955373 18.783274192 
-15.485795238 -14.143190596 18.184896224 -15.329250679 -3.8299984112 18.290898424 -15.449474164 -2.7100158434 18.151095592 
-15.404003496 0.42084384622 18.222574828 -15.907066848 -15.158691048 18.03872782 -15.455964488 -1.6280502207 17.965613536 
-15.639321533 1.638738905 17.93301855 -15.886203155 2.782356253 18.310774551 -15.534811456 -0.58269395213 17.55997107 
-15.609452844 -14.67304791 17.12349119 -15.620950255 -4.0872878328 17.290784681 -15.793656495 -2.9807562812 17.086169355 
-15.729850529 0.57523014769 17.140661888 -16.129915486 -15.835636724 17.27245674 -15.507362452 -7.0608930021 16.914254823 
-15.762467741 -5.1252582239 16.772952141 -15.82615633 -1.8063490098 16.896411181 -15.525357778 -10.242054031 16.648983936 
-15.561039143 -8.2002491576 16.456037531 -15.779010831 -15.274225268 16.167317955 -15.580706174 -11.297980913 16.134876282 
-15.684505542 -9.2422608815 15.985497077 -15.941373027 -6.1745225637 16.322432198 -16.008148254 -7.2606428964 15.815210369 
-15.421008971 -12.33971274 15.55372683 -15.808977169 -10.284255931 15.464863893 -16.028093028 -8.3071920926 15.274511861 
-16.05747229 -15.895112312 15.09177293 -15.535286636 -14.802576678 15.087532885 -15.629419964 -11.351338703 15.026878522 
-15.425975078 -12.584537409 14.489669408 -15.408505709 -14.08333718 14.084972495 -15.949867149 -10.501027822 14.27151725 
-15.729635384 -15.191821796 14.036585942 -15.57860468 -11.612548331 13.967012948 -15.356338353 -13.095509667 13.564571547 
-15.461785773 -11.992269322 13.010368606 -15.828998138 -10.792087527 13.102645117 -16.05841562 -15.4658365 13.007813182 
-15.584234439 -14.320052669 12.955773636 -15.396288002 -13.149547699 12.485079883 -15.992252366 -14.907682737 11.970112425 
-15.788735661 -10.903479753 11.95070501 -15.625288575 -13.938749408 11.674563682 -15.505006995 -12.039793493 11.988004811 
-15.535571936 -12.885922826 11.235321572 -15.625906149 -11.721467474 10.932846476 -16.096857308 -14.744223147 10.807074874 
-15.740327656 -13.725058908 10.433230385 -15.976992309 -10.707975849 10.703679964 -15.649505516 -12.601334893 10.061574851 
-15.924351177 -11.496467301 9.7716317659 -15.981449715 -13.438187019 9.2352206476 -15.973473912 -12.2990673 8.9140936869 
-16.688291142 -8.0964442384 27.027220772 -16.743676551 -10.498156068 26.627559664 -16.374120479 -9.5339916044 26.310657577 
-16.874980293 -9.218833281 27.151867751 -16.215250602 -8.5215067581 26.121502757 -16.218840856 -7.4489184655 26.127307711 
-16.72970395 -6.9503203962 27.073004235 -16.339902503 -6.2941962868 26.247441708 -16.496714645 -5.2171039468 26.417435262 
-16.809568858 -11.530669553 26.191467638 -16.545271581 -4.1686955601 26.375033509 -16.291431505 -3.3553631548 25.724081525 
-16.578667568 -12.253626942 25.323412061 -16.081521824 -5.4107663419 25.44637983 -16.101730106 -4.3032863551 25.124144236 
-16.413663056 -2.2108300223 25.738259915 -16.249624325 -1.3584131778 25.17747739 -16.083596057 -3.1164083461 24.694662288 
-16.406294689 -0.28742888627 25.251064452 -16.060898463 -2.1186492591 24.343352734 -16.600968921 0.7634660901 25.160049295 
-16.368037504 -12.626547655 24.23924034 -16.935230051 -13.217659133 24.872981275 -16.049346294 -0.95992494516 24.134567875 
-16.08410059 0.13065663217 24.154084811 -16.215692455 1.2445363099 24.110232541 -16.876303833 -13.66388943 23.837121883 
-16.236345709 2.1784052328 23.358376513 -16.682982429 -14.028670711 22.823136722 -16.188393819 2.8930064593 22.301015738 
-16.869617308 -14.85688666 22.221777466 -16.772167463 3.9271433197 22.142293244 -16.155268879 3.6424557711 21.207191185 
-16.447191465 -14.944574203 20.95025622 -16.745788437 4.8035176558 21.191006002 -16.875949714 -16.042264623 20.498301298 
-16.094773747 4.2314555595 20.154987497 -16.394750727 -15.44482992 19.791971823 -16.464007962 5.2847362969 20.047724121 
-15.967728568 3.6143793089 19.180391208 -16.783488566 -16.486665673 19.37700911 -16.121718663 4.847089503 18.836624935 
-16.321615209 -15.767463033 18.701438154 -16.654402554 -16.631661157 18.131726509 -15.999098519 3.8966422395 18.004687926 
-16.518742273 5.8917295377 18.020882503 -16.182092072 4.9457282808 17.482898343 -15.968968635 2.7333739626 17.260586256 
-16.712827705 -16.946525985 17.119576717 -15.948126897 1.6674120764 16.723578822 -16.031430303 3.8837751052 16.825212682 
-15.927824428 -0.5283740407 16.49911351 -16.27574084 -16.203333673 16.242267873 -16.011335391 -3.9795301575 16.293030971 
-16.07285731 -2.8200188822 15.923904488 -15.998750974 0.63768107252 16.016700143 -16.009470309 2.8151351467 16.159687468 
-16.345898191 4.9437955072 16.271520906 -16.693091642 -16.976062951 15.842721095 -16.165778847 -5.1263819436 15.692192977 
-16.049357867 -1.467938827 15.818540573 -16.117176744 3.9357567066 15.647799084 -16.039849284 -0.29297593117 15.29671821 
-16.017142191 1.7877543062 15.542582308 -16.302805816 -6.2176894753 15.199282148 -16.246012124 -4.0389412764 15.225204674 
-16.094003499 -2.1183376069 14.985153433 -16.022214346 0.88458475463 14.826545892 -16.025036138 2.9166751216 15.031402956 
-16.470338515 4.9660959788 15.086869924 -16.615119318 -16.866849804 14.723006046 -16.093313709 -9.3810526578 14.784446888 
-16.360239204 -7.2766680394 14.621417105 -16.597271743 -5.133714047 14.573434588 -16.231952095 -3.1024892595 14.619857117 
-16.06704617 -1.0807589118 14.531518482 -16.043430892 0.074101756214 14.072211213 -16.019724685 1.9716380953 14.315048319 
-16.187042043 4.0092509476 14.441605071 -16.282253589 -16.190657334 13.882088904 -16.292518797 -8.3671554346 14.09394841 
[...]
POINT_DATA 20000
SCALARS thickness%20(mm) double
LOOKUP_TABLE default
0 0 0 0 0 0 0 0 0 
0 0 0 0 0 0 0 0 0 
0 0 0 0 0 0 0 0 0 
0 0 0 0 0 0 0 0 0 
0 0 0 0 0 0 0 0 0 
0 0 0 0 0 0 0 0 0 
0 0 0 0 0 0 0 0 0 
0 0 0 0 0 0 0 0 0 
0 0 0 0 0 0 0 0 0 
0 0 0 0 0 0 0 0 0 
0 0 0 0 0 0 0 0 0 
0 0 0 0 0 0 0 0 0 
0 0 0 0 0 0 0 0 0 
0 0 0 0 0 0 0 0 0 
0 0 0 0 0 0 0 0 0 
0 0 0 0 0 0 0 0 0 
0 0 0 0 0 0 0 0 0 
0 0 0 0 0 0 0 0 0 
0 0 0 0 0 0 0 0 0 
0 0 0 0 0 0 0 0 0 
0 0 0 0 0 0 0 0 0 
0 0 0 0 0 0 0 0 0 
0 0 0 0 0 0 0 0 0 
0 0 0 0 0 0 0 0 0 
0 0 0 0 0 0 0 0 0 
0 0 0 0 0 0 0 0 0 
0 0 0 0 0 0 0 0 0 
0 0 0 0 0 0 0 0 0 
0 0 0 0 0 0 0 0 0 
0 0 0 0 0 0 0 0 0 
0 0 0 0 0 0 0 0 0 
0 0 0 0 0 0 0 0 0 
0 0 0 0 0 0 0 0 0 
0 0 0 0 0 0 0 0 0 
0 0 0 0 0 0 0 0 0 
0 0 0 0 0 0 0 0 0 
0 0 0 0 0 0 0 0 0 
0 0 0 0 0 0 0 0 0 
0 0 0 0 0 0 0 0 0 
0 0 0 0 0 0 0 0 0 
0 0 0 0 0 0 0 0 0 
0 0 0 0 0 0 0 0 0 
0 0 0 0 0 0 0 0 0 
0 0 0 0 0 0 0 0 0 
0 0 0 0 0 0 0 0 0 
0 0 0 0 0 0 0 0 0 
0 0 0 0 0 0 0 0 0 
0 0 0 0 0 0 0 0 0 
0 0 0 0 0 0 0 0 0 
0 0 0 0 0 0 0 0 0 
0 0 0 0 0 0 0 0 0 
0 0 0 0 0 0 0 0 0 
0 0 0 0 0 0 0 0 0 
0 0 0 0 0 0 0 0 0 
0 0 0 0 0 0 0 0 0 
0 0 0 0 0 0 0 0 0 
0 0 0 0 0 0 0 0 0 
0 0 0 0 0 0 0 0 0 
0 0 0 0 0 0 0 0 0 
0 0 0 0 0 0 0 0 0 
0 0 0 0 0 0 0 0 0 
0 0 0 0 0 0 0 0 0 
0 0 0 0 0 0 0 0 0 
0 0 0 0 0 0 0 0 0 
0 0 0 0 0 0 0 0 0 
0 0 0 0 0 0 0 0 0 
0 0 0 0 0 0 0 0 0 
0 0 0 0 0 0 0 0 0 
0 0 0 0 0 0 0 0 0 
0 0 0 0 0 0 0 0 0 
0 0 0 0 0 0 0 0 0 
0 0 0 0 0 0 0 0 0 
0 0 0 0 0 0 0 0 0 
0 0 0 0 0 0 0 0 0 
0 0 0 0 0 0 0 0 0 
0 0 0 0 0 0 0 0 0 
0 0 0 0 0 0 0 0 0 
0 0 0 0 0 0 0 0 0 
0 0 0 0 0 0 0 0 0 
0 0 0 0 0 0 0 0 0 
0 0 0 0 0 0 0 0 0 
0 0 0 0 0 0 0 0 0 
0 0 0 0 0 0 0 0 0 
0 0 0 0 0 0 0 0 0 
0 0 0 0 0 0 0 0 0 
0 0 0 0 0 0 0 0 0 
0 0 0 0 0 0 0 0 0 
0 0 0 0 0 0 0 0 0 
0 0 0 0 0 0 0 0 0 
0 0 0 0 0 0 0 0 0 
0 0 0 0 0 0 0 0 0 
0 0 0 0 0 0 0 0 0 
0 0 0 0 0 0 0 0 0 
0 0 0 0 0 0 0 0 0 
0 0 0 0 0 0 0 0 0 
0 0 0 0 0 0 0 0 0 
0 0 0 0 0 0 0 0 0 
0 0 0 0 0 0 0 0 0 
0 0 0 0 0 0 0 0 0 
0 0 0 0 0 0 0 0 0 
0 0 0 0 0 0 0 0 0 
0 0 0 0 0 0 0 0 0 
0 0 0 0 0 0 0 0 0 
0 0 0 0 0 0 0 0 0 
0 0 0 0 0 0 0 0 0 
0 0 0 0 0 0 0 0 0 
0 0 0 0 0 0 0 0 0 
0 0 0 0 0 0 0 0 0 
0 0 0 0 0 0 0 0 0 
0 0 0 0 0 0 0 0 0 
0 0 0 0 0 0 0 0 0 
0 0 0 0 0 0 0 0 0 
0 0 0 0 0 0 0 0 0 
0 0 0 0 0 0 0 0 0 
0 0 0 0 0 0 0 0 0 
0 0 0 0 0 0 0 0 0 
0 0 0 0 0 0 0 0 0 
0 0 0 0 0 0 0 0 0 
0 0 0 0 0 0 0 0 0 
0 0 0 0 0 0 0 0 0 
0 0 0 0 0 0 0 0 0 
0 0 0 0 0 0 0 0 0 
0 0 0 0 0 0 0 0 0 
0 0 0 0 0 0 0 0 0 
0 0 0 0 0 0 0 0 0 
0 0 0 0 0 0 0 0 0 
0 0 0 0 0 0 0 0 0 
0 0 0 0 0 0 0 0 0 
0 0 0 0 0 0 0 0 0 
0 0 0 0 0 0 0 0 0 
0 0 0 0 0 0 0 0 0 
0 0 0 0 0 0 0 0 0 
0 0 0 0 0 0 0 0 0 
0 0 0 0 0 0 0 0 0 
0 0 0 0 0 0 0 0 0 
0 0 0 0 0 0 0 0 0 
0 0 0 0 0 0 0 0 0 
0 0 0 0 0 0 0 0 0 
0 0 0 0 0 0 0 0 0 
0 0 0 0 0 0 0 0 0 
0 0 0 0 0 0 0 0 0 
0 0 0 0 0 0 0 0 0 
0 0 0 0 0 0 0 0 0 
0 0 0 0 0 0 0 0 0 
0 0 0 0 0 0 0 0 0 
0 0 0 0 0 0 0 0 0 
0 0 0 0 0 0 0 0 0 
0 0 0 0 0 0 0 0 0 
0 0 0 0 0 0 0 0 0 
0.57540408574 0 0 0 0 0 0 0 0 
0 0 0 0 0 0 0 0 0 
0 0 0 0 0 0 0 0 0 
0 0 0 0 0 0 0 0 0 
0 0 0 0 0 0 0 0 0 
0 0 0 0 0 0 0 0 0 
0 0 0 0 0 0 0 0 0 
0 0 0 0 0 0 0 0 0 
0 0 0.62282712037 0 0 0 0 0 0 
0.96272771112 0 0 1.1291967549 0 0.89506551833 0 0 0 
0 0 0 0 0 0 0 0 0 
0 0 0 0 0 0 0 0 0 
0 0 0 0 0 0 0 0 0 
0 0 0.55374535391 0 0 0 0 0.74246776269 0.80047007804 
0 0 0.71650829931 0 0 0 0 0 0 
0 0 0 0 0 0 0 0 0 
0 0 0 0 0 0 0 0 0 
0 0 0 0 0 0 0 0 0 
0 0 0 0 0 0 0 0 0 
0 0 0 0 0 0 0 0 0 
0 0 0 0 0 0 0 0 0 
0 0 0 0 0 0 0 0 0 
0 0 0.78401231745 0 0 0 0 0 1.0855447143 
0 0.76343567061 0 0 0 0 0 0 0 
0 0 0 0 0 0 0 0 0 
0 0 0 0 0 0 0 0.45074219344 0 
0 0 0 0.95070296774 0.94158860081 0 0 0.6247125821 0.65032136746 
0.82307163062 0 0 0 0 0 0 0 0 
0 0 0 0 0 0 0 0 0 
0 0 0 0 0 0 0 0 0 
0 0 0 0 0 0 0 0 0 
0 0 0 0 0 0 0 0 0 
0 0 0 0 0 0 0 0 0 
0 0 0 0 0 0 0 0 0 
0 0 0 0 0 0 0 0 0 
0 0 0 0 0 0 0 0 0 
0 0 0 0 0 0 0 0 0 
0 0.66448575872 0 0.94156004311 0 0.96792019937 0 0 0 
0 0.73882205503 0 0.22607829158 0 0 0 0 0 
0 0 0 0 0 0 0 0 0 
0 0.75046582243 0 0.63722421844 0 0 0 0.63558698309 0 
0 0 0 0.87663207242 0 0 0 0 0 
0 0 0 0 0 0 0 0 0 
0 0 0 0 0 0 0 0 0 
0 0 0 0 0 0 0 0 0 
0 0 0 0 0 0 0 0 0 
0 0 0 0 0 0 0 0 0 
0 0 0 0 0 0 0 0 0 
0 0 0 0 0 0 0 0 0 
0 0 0 0 0 0 0 0 0 
0 0 0 0 0.32724097037 0 0 0 0.7091116295 
0 0.78157575925 0 0.72500871602 0 0.60180699895 0 0 0 
0 0.50260731081 0 0 0 0 0.79899271863 0 0 
0.7050903592 0 0 0.9075280097 0 1.1660777078 0 0 0 
0.76104976957 0 0.80539107798 0 0 0 0 0.5920829564 0 
0.77126056268 0 0 0.72913073022 0.95416178326 0 0 0 0.50412302908 
0.29402977363 0 0 0 0 0 0 0 0 
0 0 0 0 0 0 0 0 0 
0 0 0 0 0 0 0 0 0 
0 0 0 0 0 0 0 0 0 
0 0 0 0 0 0 0 0 0 
0 0 0 0 0 0 0 0 0 
0 0 0 0 0 0 0 0 0 
0 0 0 0 0 0 0 0.90551685183 0 
0.92579773423 0 0 1.1458296797 0 0 1.5308724507 1.4945259547 0 
1.1343352786 0 1.4712800124 0 1.2958116668 0 0 1.285568163 0 
1.2710151936 0 1.02632955 0 1.2223072242 0 0 1.0682341605 0 
0.91783720756 0.71974960505 0 0 0.59200866021 0.41973862176 0 0 0 
0 0 0 0 0 0 0 0 0 
0 0 0 0 0 0 0 0 0 
0 0 0 0 0 0 0 0 0 
0 0 0 0 0 0 0 0 0 
0 0 0 0 0 0 0 0 0 
0 0 0 0 0 0 0 0 0 
0 0 0 0 0 0 0 0 0 
0 0 0 0 0 0 0.3231259871 0 0 
0.66984427469 0.88115922487 0 0.99463982813 0 1.0039911778 0 0 0 
0 0 0 0 1.7107327886 0 0 1.6284619608 0 
0 1.561961471 0 0 0 1.4209718717 0 1.4300824495 1.1365470614 
0 0 0 0 0.81124604623 0 0.57593618328 0 0.22195546622 
0 0 0 0 0 0 0 0 0 
0 0 0 0 0 0 0 0 0 
0 0 0 0 0 0 0 0 0 
0 0 0 0 0 0 0 0 0 
0 0 0 0 0 0 0 0 0 
0 0 0 0 0 0 0 0 0 
0 0 0 0 0 0 0 0 0 
0 0 0 0 0 0 0.29464260003 0 0.7024668346 
0 0 0.46377913182 0 0.88624570964 0 1.0709044573 0 1.2793468581 
0 1.3494965019 1.3652663315 0 0 1.2456575471 0 1.5100202051 0 
1.8757049314 0 2.0454010472 0 2.0390503566 0 0 1.7733646244 0 
0 1.487805463 0 0 1.7121093191 0 1.6146138344 0 0 
1.550114739 1.3912810437 0 1.3173821704 1.0544745663 0 0 0.61434929345 0 
0.52792647091 0 0 0 0 0 0 0.53139922815 0 
0 0 0 0 0 0 0 0 0 
0 0 0 0 0 0 0 0 0 
0 0 0 0 0 0 0 0 0 
0 0 0 0 0 0 0 0 0 
0 0 0 0 0 0 0 0 0 
0 0 0 0 0 0 0 0 0 
0 0 0 0 0 0 0.57932197117 0 1.1765167532 
0 0 0 0.69479712262 0 0.71734529362 0 0 1.0378552809 
0 0 0 0 1.7633781884 0 1.745761418 1.9389270133 2.1121573647 
0 0 0 2.0436347118 0 0 1.7853599217 0 1.7562760086 
0 1.7105834929 0 1.7924588617 0 1.6949381129 0 0 0 
0.9280686697 0 0 0.57351153983 0.80724225328 0.76986379443 0 0.73149810638 0 
0.70417680775 0.80971261745 0 0.5624536491 0 0 0 0.17873768313 0.26848518958 
0 0 0 0 0 0 0 0 0 
0 0 0 0 0 0 0 0 0 
0 0 0 0 0 0 0 0 0 
0 0 0 0 0 0 0 0 0 
0 0 0 0 0 0 0 0 0 
0 0 0.81991979457 1.100004426 0 0 0 1.3076657323 0 
0 1.4484344275 1.1025177793 0 0 1.1528582435 0 1.4976824104 1.6859549856 
1.7181843155 0 0 0 0 2.1929564675 2.2448669267 0 0 
0 1.9898677712 0 1.9432583973 0 0 0 1.8150660316 0 
0 0 1.7044606135 1.5947874758 0 1.5160082758 0 0 1.2955533739 
0 0.72145786684 1.0177365941 0 0 1.015324253 0 1.3223394384 0 
1.3688374317 0 1.3513562246 1.3865426419 0 1.1047996838 0.80040514201 1.3990765658 0.66746635838 
0.92770409364 0 0 0 0 0 0 0 0 
0 0 0 0 0 0 0 0 0 
0 0 0 0 0 0 0 0 0 
0 0 0 0 0 0 0 0 0 
0 0 0 0 0 0 0 0 0.41167773211 
0.7394247805 0 0 0 0 1.4498160599 0 1.7255537355 1.6167769157 
0 1.7612469559 0 1.7264220721 0 1.4086756096 1.5573858771 0 0 
1.4109470693 1.5806015564 0 0 1.8022839814 0 1.9021668141 0 1.9487074492 
0 1.9218165496 0 0 0 2.0518640214 2.1731576899 0 2.2604378649 
0 0 2.1599125963 0 0 0 1.8535903576 0 1.9117094952 
0 0 1.8917784214 0 1.8027877722 0 0 0 1.4270205855 
0 1.1631000324 0 1.3576888639 1.3865494316 0 0 0 0 
0 0 1.4761301164 0 0 0.04384261283 0.96728502112 1.1898313612 1.2038272627 
1.3661813044 0 0 0 0 0 0 0 0 
0 0 0 0 0 0 0 0 0 
0 0 0 0 0 0 0 0 0 
0 0 0 0 0 0 0 0 0 
0 0 0 0 0 0.84038267662 0 1.6201786165 1.5826093425 
0 0 1.7204374362 0 0 0 0 0 0 
1.6562445797 0 0 1.662108459 0 0 0 0 0 
2.1402913131 0 2.2668029643 0 0 2.1235621065 2.0349958049 0 0 
1.9710961361 0 2.0489127682 2.0003996699 1.8468005051 0 1.7502181536 1.6983921678 0 
1.648219487 0 1.5173966246 0 0 1.4348273832 0 0 1.6687210892 
1.6693968336 1.7204090949 0 1.7025986917 0 1.7178597101 0 1.7288356422 1.7155154629 
0 0 1.3953408391 1.6888611915 0.76026063005 1.1568117128 1.3666530903 1.478008707 0 
0 0 0 0 0 0 0 0 0 
0 0 0 0 0 0 0 0 0 
0 0 0 0 0 0 0 0 0 
0 0 0 0 0 0 0 0 0 
0 0 0 0 0 0 0 0 0 
0 0 0 0 0.60806669482 0 0 1.5762141932 0 
1.611171132 0 0 0 1.8137347277 0 1.874705873 0 1.8180789918 
0 1.7661534172 1.8031279442 0 1.7710512498 0 0 1.5836405358 0 
1.5983174047 0 0 1.7021738868 0 1.7935328871 1.8889693953 0 1.9706252274 
0 1.9515175428 1.976037556 0 0 2.2322343412 0 2.215379519 0 
2.0619363259 0 0 1.998153144 0 0 0 1.9966943137 1.930823938 
0 1.859848441 0 0 1.634473618 0 0 1.7709623012 1.7080637529 
0 1.9010692742 0 1.9313136234 0 1.8666187188 0 1.8636074353 1.91220033 
0 0.95943822162 1.6269936711 1.7421395888 0 0 0 0 0 
0 0 0 0 0 0 0 0 0 
0 0 0 0 0 0 0 0 0 
0 0 0 0 0 0 0 0 0 
0 0 0 0 0 0 0 0 0 
0 0 0.33817017952 0 1.4803876616 1.5591254612 0 1.9629240203 0 
1.9374924122 1.8985176012 0 1.895827871 0 1.8670597202 0 0 1.7783440192 
0 1.7474546651 0 1.7605695106 0 1.7631608107 0 0 1.6250442024 
0 1.7557595555 0 1.8041489046 1.9212273824 0 1.9338345781 0 2.0334110055 
0 0 0 2.217846188 2.2308475031 2.171775095 0 0 2.0324144553 
0 2.0364052756 0 2.1008856517 0 0 0 0 1.8659524715 
0 1.7893869614 0 0 1.7011042383 1.7946783126 0 0 1.8699650439 
0 0 0 1.8901636559 0 1.9095544756 0 0 2.0039531649 
0.38831400463 0.83637056054 1.3711014302 1.5211304523 1.8126253489 0 0 0 0 
0 0 0 0 0 0 0 0 0 
0 0 0 0 0 0 0 0 0 
0 0 0 0 0 0 0 0 0 
0 0 0 0 0 0 0 0 0 
0 0 0 0 0 1.4594184197 0 0 1.9637154229 
0 0 1.9707378605 0 0 0 1.8334340255 0 1.676118021 
0 0 1.8026910306 0 0 1.7554999681 0 0 0 
0 0 0 1.9372602085 0 2.1455084143 0 0 0 
2.1140816131 0 0 0 2.0937492602 0 2.0659341987 0 1.9953360949 
1.9872145571 0 1.9243421571 1.7981075075 0 0 1.9057023733 1.8620484107 0 
2.0326615628 0 2.0288630439 2.0055332308 2.0223713641 2.0983731689 0 2.0947511761 2.0393192637 
2.1134706852 0 0.46737847622 0.69447914446 1.2290704272 1.4115377163 1.6909640463 1.7789762847 1.8145237135 
0 0 0 0 0 0 0 0 0 
0 0 0 0 0 0 0 0 0 
0 0 0 0 0 0 0 0 0 
0 0 0 0 0 0 0 0 0 
0 0 0 0 0 0 0 0.35101060261 0 
1.3294570011 0 1.9077525036 1.9382408194 0 0 2.0113585971 0 1.9829037158 
0 1.9412947496 0 0 1.8949074266 0 1.7517786757 0 0 
0 1.7901134264 0 1.7828951373 0 1.7993276607 0 1.7946382124 0 
1.7538957617 0 1.8325705528 0 1.8766009845 1.8474820541 0 1.8762314588 0 
0 1.9498775428 0 1.9743710447 0 2.1406538923 0 2.2141995148 2.1828785199 
0 0 2.0657712179 0 2.1210247548 0 2.0835236739 2.0393520115 0 
0 1.9969746412 0 0 0 1.8494501485 0 1.88222924 0 
1.8865589315 0 2.0163518241 2.0803880724 0 2.1583539989 2.1361824951 0 2.1906758363 
2.1925428525 0 2.0031213137 2.1648167248 1.4471296362 1.7506443735 1.8991224491 0 0 
0 0 0 0 0 0 0 0 0 
0 0 0 0 0 0 0 0 0 
0 0 0 0 0 0 0 0 0 
0 0 0 0 0 0 0 0 0 
0 0 0 0 0 0 0 0 0 
0 0 0 1.7769409052 0 2.0683692844 0 0 1.9852948101 
0 1.9605323146 0 1.9077349712 0 1.8750420231 0 1.7570892881 0 
0 0 0 1.7979323382 0 1.8463685547 0 1.8892280518 0 
0 0 2.0077164725 0 0 0 2.1921433332 2.1418901337 2.1043794995 
0 2.1311330018 0 0 2.1185520744 0 2.0474315984 0 1.9805236958 
0 1.8694472314 1.9355861447 0 1.9520070719 1.908250551 0 0 0 
2.0222599503 2.174549902 2.1189794229 0 0 0.075167641324 2.1250333275 2.1782512167 0.6853371304 
1.0990440572 1.3863946106 1.8797534793 1.8969151357 1.9128981991 1.9388472543 0 0 0 
0 0 0 0 0 0 0 0 0 
0 0 0 0 0 0 0 0 0 
0 0 0 0 0 0 0 0 0 
0 0 0 0 0 0 0 0 0 
0 0 1.3738051943 1.5910756794 0 0 1.9542894896 0 0 
2.0354315577 0 1.9225951774 0 0 1.88686525 0 1.7821682053 0 
1.7553864651 0 1.6835050784 0 1.7487807395 1.7423635164 0 0 0 
1.8809700077 0 0 1.956041866 0 1.9987218782 0 2.0190413997 0 
2.0311281387 2.1004587615 0 0 0 0 2.1294877467 0 0 
2.092662532 0 2.0519576986 0 2.058056897 0 0 1.9994643222 0 
0 1.9857944259 1.9720414912 0 1.8984494879 1.9536411606 1.9067032915 2.0308603033 2.2390374765 
2.1834849396 0.64654427095 2.08443224 2.1901005686 1.7339146038 1.9688442328 2.1730082897 2.1130194447 2.0583265308 
0 0 0 0 0 0 0 0 0 
0 0 0 0 0 0 0 0 0 
0 0 0 0 0 0 0 0 0 
0 0 0 0 0 0 0 0 0 
0 0 0 0 0 0 0 0 0 
0 0 0 0 1.2371904073 0 1.8175319426 0 1.817307185 
0 0 1.9501147123 0 1.9408704511 1.9139879258 0 0 1.8682533288 
1.9167873045 0 0 1.8026779897 0 1.757597139 0 0 0 
1.6959411671 0 1.7807913294 1.7796146887 0 0 1.8362369606 0 1.8604166487 
0 1.8584035921 0 0 0 0 2.0683326891 0 2.0730824254 
2.1462479033 0 2.1870585284 0 2.1236486887 0 2.1540529435 2.116340749 0 
2.1649888177 0 2.0868374848 0 2.0854496811 2.0490816269 0 1.9703460089 0 
0 0 0 1.9038792692 0 1.9344039011 0 0.96152627338 2.1445033476 
2.0981789485 1.2570680179 1.3442900766 1.5815300965 2.1330286329 2.1327626588 2.1577421574 2.0245669621 2.0178735267 
2.0431390133 2.1554811779 0 0 0 0 0 0 0 
0 0 0 0 0 0 0 0 0 
0 0 0 0 0 0 0 0 0 
0 0 0 0 0 0 0 0 0 
0 0 0 0 0 0 0 0 0 
0 0 0 0 1.496381254 0 1.7731670023 0 0 
0 1.8789007879 0 1.9212749558 0 1.9038681586 0 1.8969462945 1.8708658291 
0 1.7951937214 1.7505093968 0 1.6785217663 1.5915558562 0 0 0 
0 0 1.8113492842 1.8092904731 0 0 1.8448829561 0 0 
1.952083241 0 1.9407410209 1.969894889 0 2.0349577866 0 0 0 
0 2.0419199216 0 2.0776864591 2.103694235 0 0 2.1342629268 0 
2.169169677 0 0 2.1235763246 0 2.097725387 0 2.0405837838 0 
2.008314977 1.9162823572 1.8623207728 0 1.9362687117 0.9095701238 1.4881387933 2.0118036804 1.577441664 
1.8841336556 2.1293760677 2.0156639619 2.0456556437 2.1662927923 2.1413393074 2.111498466 2.176969759 2.2432033872 
2.1986579741 2.1280933249 0 0 0 0 0 0 0 
0 0 0 0 0 0 0 0 0 
0 0 0 0 0 0 0 0 0 
0 0 0 0 0 0 0 0 0 
0 0 0 0 0 0 0 0 0 
0 0.30834228944 0.92884024235 0 1.7523596599 0 1.956714314 0 1.9363830231 
0 0 1.9464454285 0 1.9404217684 0 0 0 0 
0 1.6802767873 0 1.6938912938 0 1.6754887648 1.7555888243 1.806110279 0 
0 0 0 1.8299842237 0 1.9516167103 0 0 0 
0 0 2.0365538881 0 2.0808348724 0 2.0516235819 0 0 
0 2.1029758561 0 0 2.1767107676 0 2.2072587505 0 2.2294699103 
0 2.181290888 2.1116818558 2.0329915099 0 0 1.9117966968 1.9451474416 1.9845237045 
1.7673200239 1.9951820812 1.870979409 2.1662807553 2.1306508061 2.2060805308 2.1544851354 2.1765661003 2.1323786384 
2.0701917002 2.1939382646 2.170623635 2.0110832328 1.8978913409 0 0 0 0 
0 0 0 0 0 0 0 0 0 
0 0 0 0 0 0 0 0 0 
0 0 0 0 0 0 0 0 0 
0 0 0 0 0 0 0 0 0 
0 0 0 0 0 0 0 0 1.3322531515 
1.54844363 0 1.9360911197 0 2.0301206292 0 1.9671059153 0 0 
1.944530871 0 0 1.9179309731 0 1.8699664653 0 1.7958443289 0 
0 1.6934856927 0 0 1.8003543923 0 1.8158208588 0 1.8523774816 
0 0 2.0304617685 1.980913499 0 0 1.9638770427 0 1.9597855813 
0 2.0159926142 2.079658247 2.0776637605 0 2.0841097525 0 2.0895038532 0 
2.1850172446 2.1502400815 0 0 2.2075530646 0 2.2788604861 2.2805554924 2.2856377471 
0 2.2585269706 0 2.1670713153 0 0 0.86395908167 1.6082594342 1.8548702348 
2.1025274444 1.9936740286 2.0381738172 1.9467037929 2.1590485288 2.101440549 2.1154842268 2.2572877757 2.1644764207 
2.2668718304 2.2091919161 2.0633098245 2.1498816208 2.1820885101 2.1927712498 2.1453812159 2.0773608358 2.0362849512 
2.07667687 0 0 0 0 0 0 0 0 
0 0 0 0 0 0 0 0 0 
0 0 0 0 0 0 0 0 0 
0 0 0 0 0 0 0 0 0 
0 0 0 0 0 0 0 1.1884019397 0 
0 1.7652133824 0 0 1.9661706037 0 1.9270696138 0 0 
1.9238333021 0 1.8489742341 0 1.7977342004 0 1.7622102654 1.6710835078 0 
0 1.6884623369 0 1.7572721808 0 0 1.808626881 0 0 
0 1.8840677968 0 1.9822237489 0 0 0 2.0007213748 1.9703292516 
0 0 0 0 0 2.1739030522 0 0 2.2783100719 
2.2461749661 0 2.3052917491 2.3324787103 0 2.3498204597 0 2.3207051191 0 
0 0 2.1212525531 2.042484877 0 1.9965320874 1.9530735951 2.1161032278 1.9813212771 
2.0938455134 2.1121065762 2.3337636945 2.2254537147 2.2787923174 2.1921069906 2.1813087789 2.1909095072 2.1946563345 
2.0649939189 0 0 0 0 0 0 0 0 
0 0 0 0 0 0 0 0 0 
0 0 0 0 0 0 0 0 0 
0 0 0 0 0 0 0 0 0 
0 0 0 0 0 0 0 0 0 
0 0 0 0 0 0 1.2203721835 0 1.4464329134 
1.6610493719 0 0 1.9145934017 2.0331239802 0 2.0222914772 0 1.9646247509 
0 1.9247334267 1.8728029228 0 0 1.797979674 0 1.6806703594 1.6916526088 
0 1.5934873002 0 0 1.8014493177 0 0 1.8068870953 1.8083629871 
0 1.7876819758 0 1.8795479009 0 1.997467325 0 0 2.0463566258 
0 2.0674106411 0 2.0831699104 0 2.1313598016 0 0 2.1630087612 
0 0 0 0 0 2.3840448252 2.2998229132 2.2120937884 0 
2.1594499075 0 2.1098465938 0 2.0575935488 1.3224068601 2.2622511756 2.0214061575 2.2160383653 
2.2744981657 2.2770214631 2.259344569 2.3541859708 2.2813896531 2.1544337487 2.2083130199 2.1884186429 2.197539606 
2.192397639 2.1940124753 2.283852393 2.2121945968 2.1752600175 0 0 0 0 
0 0 0 0 0 0 0 0 0 
0 0 0 0 0 0 0 0 0 
0 0 0 0 0 0 0 0 0 
0 0 0 0 0 0 0 0 0 
0 0 0 0 0 0 0 0 0 
0 0 0 0 0 0 0 0 0 
1.8102185608 0 0 1.9968814155 0 0 1.973237123 1.9519392159 1.898698281 
0 0 1.767046595 0 1.7025716295 1.6174210715 0 1.6681848746 0 
1.7707513545 0 0 0 1.8162932614 0 0 0 0 
1.9484425463 0 1.9759709124 0 2.0469366735 0 0 0 2.0902274925 
0 2.1217842009 0 2.2372420305 0 2.2076394058 0 2.2412905288 2.3086194237 
0 2.3181446269 0 2.3558307872 2.3765175736 0 0 0 2.2131399073 
0 2.1407773702 0 0 1.7982624963 2.1386690112 2.2788539368 2.1179431375 2.3698611125 
2.3525864592 2.3049874145 2.3480096215 2.2485704681 2.2282957008 2.2053156551 2.2976118121 2.2306161387 2.2015393989 
2.255822123 2.3371247178 2.43793073 2.3464842975 0 0 0 0 0 
0 0 0 0 0 0 0 0 0 
0 0 0 0 0 0 0 0 0 
0 0 0 0 0 0 0 0 0 
0 0 0 0 0 0 0 0 0 
0 0 0 0 0 0 0 0 0 
0 0.89817163441 0 1.4228868298 1.6717354588 0 1.8098584705 0 1.9387282874 
0 2.0039508413 1.9823954896 0 0 1.9969728238 0 1.9767371438 0 
0 0 1.9088621949 1.8722575117 0 0 0 0 0 
1.6718242511 1.7630437998 0 1.7810889675 0 1.8172777766 0 0 1.7791246728 
1.8383173098 2.102749829 0 0 2.2283951798 0 0 2.3705669172 0 
0 2.2873933193 0 2.3251163976 2.3719581187 0 2.4181855016 2.4005450145 0 
2.3362255318 0 2.1622119922 0 2.1179793226 0.46269238397 1.9295843366 2.3423001798 2.3326107161 
2.1384361937 2.3469309087 2.0852188823 2.3368674236 2.3176583905 2.2471420861 2.3446359427 2.3099785595 2.2300958534 
2.2568663486 2.2238942858 2.1952208801 2.1942016533 2.2010690484 2.4487696887 2.5060298868 2.4568367016 2.2924540897 
0 0 0 0 0 0 0 0 0 
0 0 0 0 0 0 0 0 0 
0 0 0 0 0 0 0 0 0 
0 0 0 0 0 0 0 0 0 
0 0 0 0 0 0 0 0 0 
0 0 0 0 0 0 0 0 0 
0 0 0 0 1.3156429833 0 0 1.9370953313 0 
1.9590384897 0 2.0289599497 1.9928796688 0 0 1.8918187214 0 1.8991651216 
0 1.9242763859 0 0 1.8120031258 0 1.7448365825 0 1.7611344828 
0 1.6512793523 0 1.6102855876 0 1.5304177744 1.6885354877 0 1.6112722627 
0 0 0 1.8690262921 0 1.9764788829 0 2.1021319169 0 
2.0914136839 2.1554290123 0 0 2.2763674486 0 2.2426477451 0 0 
0 2.4653711197 2.4149140239 0 2.2165982223 2.3221332649 0 2.1602355585 2.4025262593 
2.3561768199 2.1717259407 2.3608764405 2.1690667681 2.3278797075 2.3694473279 2.3415352953 2.3650143921 2.1653639284 
2.1726778858 2.4259774214 2.3655791182 2.1119400713 2.1811581636 2.2631532254 2.4815598731 2.5233088164 2.4389744152 
0 0 0 0 0 0 0 0 0 
0 0 0 0 0 0 0 0 0 
0 0 0 0 0 0 0 0 0 
0 0 0 0 0 0 0 0 0 
0 0 0 0 0 0 0 0 0 
0 0 0 0 0 0 0 0 0 
0 0 0.98207929882 0 1.6170643333 1.7347230134 0 1.8480767259 0 
0 0 2.0554235279 2.0468484549 1.9575596623 0 1.9048647055 0 1.8904679588 
0 1.8544842506 0 1.7579723145 0 1.7548660269 0 1.7517621996 0 
1.5320008253 0 1.5054996236 0 0 0 1.4268218398 0 1.7546497305 
0 1.850114684 0 1.8701540379 0 1.9818467609 0 2.0955999404 0 
0 2.1826796872 0 2.243256026 0 2.3316418132 0 2.4300000592 0 
2.3678689058 0 2.2786553409 0 2.4034091136 0 2.4775757846 0 0 
2.1859435184 0 2.1821623164 0 1.5620681541 2.2623776644 2.4835846856 2.1764334508 2.5151965195 
2.4379471117 2.1674677667 2.343752769 2.2829830808 2.3334974619 2.3537548462 2.4342729085 2.2827427228 2.4453082264 
2.2040177019 2.4492208426 2.4342835179 2.173745476 2.484606965 2.38884688 2.2943953134 0 0 
0 0 0 0 0 0 0 0 0 
0 0 0 0 0 0 0 0 0 
0 0 0 0 0 0 0 0 0 
0 0 0 0 0 0 0 0 0 
0 0 0 0 0 0 0 0 0 
0 0 0 0 0 0 0 0 0 
0 0 0 0 0 0 0 0 0 
0 0 0 0 1.6146771665 0 1.8732553344 0 1.8673829174 