# vtk DataFile Version 4.2
vtk output
ASCII
DATASET POLYDATA
POINTS 19998 double
-29.200411863 6.1805641016 32.565985129 -29.171209579 7.0224931613 33.036055248 -29.136954063 7.0503482449 32.148489547 
-29.575163521 3.0127687498 32.299242281 -29.514849066 3.9924507563 31.95584571 -29.285479345 6.2714445595 31.719055317 
-29.606015797 2.4524413508 31.625651262 -29.491364824 3.2700956536 31.549765241 -29.833423809 0.7884584753 31.627148452 
-29.734743205 1.5328717775 31.636407634 -29.76492739 0.46512014966 30.916959421 -29.744858076 1.3213117147 30.70840316 
-29.90603364 -0.16500801725 30.440100657 -29.718055577 0.6693155354 30.101524899 -29.71432824 -0.016072379366 29.539796226 
-29.995556531 -0.77941789399 29.719339105 -29.824550118 0.80003474663 29.229647379 -29.723785911 -0.68694652172 28.901646315 
-30.07366503 -1.4379542699 29.168137666 -30.154245348 -2.1209982089 28.706264606 -29.761381115 -1.4045151865 28.360824107 
-29.699318906 0.12867856654 28.659572617 -29.617427382 -0.60537904994 28.054903429 -29.837236209 -2.1311571903 27.85841682 
-30.322950116 -2.8230420727 28.268097341 -29.744824964 0.24154131447 27.855952835 -30.051314929 -2.8451341988 27.492205301 
-29.64324382 -1.3294020102 27.504864912 -29.721682328 -2.0194974236 26.927005153 -29.610222593 -0.41709808736 27.22700386 
-29.813888096 0.43486573492 27.012552746 -29.981837381 -2.8709071162 26.700463858 -30.463769996 -3.4688730727 26.957682959 
-29.607155986 -1.0546298309 26.668835402 -29.657386879 -0.099550815156 26.384510205 -30.308489424 -3.2738518385 25.97709978 
-29.801747896 -2.3835978585 26.093784292 -29.650253662 -1.5474739414 26.053485744 -29.597451178 -0.63127896115 25.800476776 
-29.932231051 0.83246987748 26.239637947 -29.979750791 -2.7291633018 25.398458544 -29.783907307 0.33815066848 25.597164615 
-29.715115637 -1.9233687495 25.285675902 -29.611102408 -1.0990501419 25.175439464 -29.6513417 -0.13810134082 24.977352689 
-29.938893151 -2.4887838445 24.607485749 -30.444844166 -3.2759352443 25.005866649 -29.684670282 -1.5983959149 24.454913057 
-29.606373175 -0.69771395031 24.386412233 -29.923820444 0.76394779962 24.772916719 -29.770531617 0.24615691731 24.125009234 
-30.329298437 -2.9494559376 24.03644312 -29.894688527 -2.0911877985 23.829297534 -29.682860053 -1.1633566088 23.62152031 
-29.655570227 -0.27693251357 23.585017935 -30.20243095 -2.3684067866 23.186763896 -29.921939625 -1.6054924034 22.948582367 
-29.831250562 0.44698714549 23.067606642 -29.654156941 -0.56030335012 22.857112332 -29.7682302 -1.1643180474 22.303430638 
-29.676013353 0.16045572891 22.303312554 -30.039652247 -1.8561532173 21.990568932 -29.606519581 -0.52727962317 21.906545371 
-29.84847067 0.92915867356 22.04046063 -29.985760477 -2.0420044917 21.188715346 -29.707937072 -1.261401252 21.407912182 
-29.593244679 0.13910823953 21.412771114 -29.740790221 0.79011697712 21.138584408 -29.588450986 -0.55107823543 20.994102431 
-30.100105248 -2.2044011714 20.416067173 -29.738991172 -1.443232629 20.553554615 -29.717645965 0.22226531237 20.435329931 
-29.68110883 -0.66296032582 20.220777017 -29.911226914 -1.3377690182 19.708254962 -29.91725916 -0.38823655512 19.567631788 
-29.934226786 4.7244395523 36.605699212 -30.147161577 5.4220157465 37.163825852 -29.98711713 3.9419553464 36.262660603 
-30.262605694 4.0651316154 36.989223018 -29.774550097 5.4531998738 36.342640761 -29.968015825 6.211755753 36.829764267 
-29.652423314 6.1964023611 36.089078027 -29.65664294 6.9412179763 36.314850944 -29.904435928 7.4530693247 36.923525246 
-29.50122838 7.7322864294 36.153923702 -29.590033663 8.377997073 36.492220741 -29.424815915 9.0478014639 35.994726248 
-30.105843394 3.1848886997 35.858098885 -29.712925853 4.8174911804 35.693412846 -29.742713546 9.7720483648 36.262223091 
-30.415231469 2.3074686933 35.62802633 -29.812770527 4.0062299074 35.52601359 -29.606697201 5.6875989328 35.463016112 
-29.509147575 6.6482782318 35.440746908 -29.41468147 7.5106776674 35.420185657 -29.327833259 8.4356730602 35.438914385 
-29.278499321 9.5568216655 35.293858912 -29.649478309 10.391037917 35.67459624 -30.050741343 2.7493099395 35.115383402 
-29.843494689 3.519046511 34.907465257 -30.228879864 2.0740679928 34.689661346 -29.72306449 4.4112663793 34.791402261 
-29.633380483 5.2330459667 34.791469752 -29.527659528 6.1687513482 34.691107278 -29.43055164 7.0765864492 34.682481652 
-29.340855601 7.9900683849 34.649428707 -29.252039985 8.9126011662 34.605197215 -29.307406135 10.439681622 34.89694583 
-29.900574852 2.9604005743 34.298992059 -29.186211936 9.7669680178 34.288964459 -30.252535334 1.6275366694 34.044724693 
-29.961533578 2.4023430236 33.788973732 -29.766578702 3.9243128487 34.097243509 -29.665307869 4.8400321795 33.964674762 
-29.556110104 5.6700766762 33.977012154 -29.400334074 6.6992840615 33.926263939 -29.335544141 7.5765075332 33.901703824 
-29.277419198 8.526398458 33.829645596 -29.259653105 10.685176425 34.10185827 -30.620080594 0.81038960069 33.89699982 
-29.792809563 3.3813322357 33.50059461 -29.212974817 9.3745954203 33.51648464 -30.194285646 1.2475553564 33.362916635 
-29.954466062 1.906578378 33.114417146 -29.682019147 4.3798557299 33.284982316 -29.529137157 5.3321052294 33.076478296 
-29.365526677 6.1601729749 33.341548051 -29.255112588 7.8785224777 33.172915311 -29.246797104 10.25427436 33.304954765 
-29.48890221 11.150379669 33.387113748 -30.372976732 0.58567960732 33.058611021 -29.798810158 2.7384785753 32.994441647 
-29.635026249 3.7464238473 32.738059217 -29.253821299 8.6879311833 32.908896183 -30.620670168 -0.094198873252 32.802409866 
-29.963921435 1.1856954947 32.486674344 -29.575872712 4.699004898 32.451429921 -29.255009893 9.4775586459 32.577125669 
-29.401074754 10.251447858 32.442741108 -30.194238393 0.30484553991 32.225487122 -29.756552071 2.0618179666 32.34198584 
-29.437762018 5.46028878 32.07525897 -29.221654709 7.9046229583 32.369196701 -29.276108965 8.807973896 32.005151361 
-30.642513909 -0.58246451091 32.115030423 -29.439580585 9.7382829533 31.620101854 -30.138806165 -0.078144146662 31.467312804 
-29.582365093 4.7282285013 31.49078962 -29.299781921 7.96968047 31.506297531 -29.336121003 7.1216818416 31.275349266 
-30.428843053 -0.72821096258 31.242878865 -29.756606957 2.1166004243 30.952881482 -29.613635321 3.9109479965 31.067877673 
-29.539385145 5.4992794812 31.133527272 -29.370676447 8.8787372822 31.162546966 -30.75479693 -1.4421893764 30.890026527 
-29.703541352 3.0083464009 30.748790425 -29.658841373 4.693497272 30.637722598 -29.468058584 6.2839050751 30.851791767 
-29.385761944 8.029677877 30.589360097 -29.687922937 9.7958536178 30.73952158 -30.269174987 -0.83877836615 30.499161877 
-29.737006175 3.8622139891 30.248968789 -29.595452663 5.5195669685 30.24195931 -29.427560843 7.1212072381 30.442152145 
-29.559698132 9.0089085058 30.379843265 -30.44205109 -1.4544226894 30.029465793 -30.935796238 -2.0445195505 30.33344836 
-29.891732841 1.507411408 29.775955537 -29.870428847 2.2577229909 30.185597672 -29.830668356 3.1107544014 29.845422679 
-29.508776807 6.3963748289 29.9569633 -29.565142863 8.4808399151 29.771010267 -30.556603603 -2.063736735 29.527499295 
-29.681776974 4.742032653 29.785689266 -29.446167283 7.4921985599 29.691863447 -29.920309768 2.358691926 29.35692544 
-29.762865331 3.9746080295 29.380272184 -29.587291202 5.6721098512 29.371535873 -29.495875164 6.6214525733 29.176189103 
-30.696801758 -2.7140882156 29.0594083 -31.103674043 -2.6548982806 29.818849924 -29.96468576 1.645299324 28.855577555 
-29.845645344 3.2074443063 28.933606161 -29.674304239 4.8452789305 28.925406619 -29.503180237 7.4462440096 28.742597606 
-29.619324289 8.162353921 29.01454102 -30.908203335 -3.357702913 28.618216784 -29.932543351 0.99903057362 28.396599069 
-29.926134439 2.4369657997 28.506850378 -29.765842446 4.0000803818 28.472148876 -29.584316415 5.7071565075 28.510205852 
-29.87429588 3.078321695 27.988973845 -29.676497971 4.8794184082 28.014184809 -29.50567125 6.657860178 28.328532503 
-29.791356054 8.3620440378 28.162547108 -30.63941036 -3.4822858736 27.779859222 -31.225629327 -3.9453195592 28.167217981 
-29.972517748 1.9277340299 27.886267489 -29.560221105 6.1095587587 27.738121094 -29.577629133 7.4793408465 27.912387926 
-29.960540957 1.0454716804 27.654897195 -29.807323371 3.9573723448 27.631138718 -29.642812786 5.4848392803 27.324309942 
-29.587611624 6.9309547545 27.343439664 -29.803345054 7.96199646 27.301038065 -31.132183941 -4.0357564648 27.284317149 
-29.994053696 1.3658187216 27.004553675 -29.983844413 2.2375395537 27.128681743 -29.966341441 3.1041741098 27.150005283 
-29.783057707 4.6584053717 27.080180512 -30.008754152 3.9173405773 26.765538358 -29.690026623 6.3346124809 26.805054645 
-29.845879005 7.3772416644 26.619549533 -30.881227976 -3.8539629499 26.428954742 -30.030406556 1.7016639137 26.301296525 
-30.133399011 2.7163872989 26.367155589 -30.291580997 3.5175845415 26.122022517 -29.833627287 5.3220779985 26.506668756 
-30.148689763 4.5551368939 26.086946632 -29.955928267 6.1109463956 26.107522071 -30.006097258 6.9575284249 25.981871962 
-30.914289352 -3.8439881555 25.637988292 -30.026770066 1.3138527874 25.438971813 -30.161578901 2.232821225 25.748786579 
-31.223443478 -4.0711886972 25.003964523 -30.207746944 2.179312227 25.007540209 -30.835753097 -3.6141420062 24.466070479 
-30.063402707 1.5928103354 24.462301196 -30.289426935 2.6351120667 24.306662339 -30.87894846 -3.6084852383 23.753816461 
-29.977584941 1.0076206068 23.765498357 -30.047960087 1.9065327425 23.643723483 -30.148388584 2.7217130342 23.41145013 
-30.516505573 -3.0684225121 23.187979087 -30.906920745 -3.6870197857 22.961903202 -29.983941913 1.3325091289 22.865675283 
-30.016408405 2.287609844 22.774854249 -30.239904741 3.306363738 22.700193301 -30.557394098 -3.0892365478 22.269823159 
-30.31624898 -2.4038266644 22.390749535 -30.919613663 -3.725317501 22.185881473 -29.979403791 1.8005778759 22.026811151 
[...]
POINT_DATA 19998
SCALARS thickness%20(mm) double
LOOKUP_TABLE default
0 0 0 0 0 0 0 0 0 
0 0 0 0 0 0 0 0 0 
0 0 0 0 0 0 0 0 0 
0 0 0 0 0 0 0 0 0 
0 0 0 0 0 0 0 0 0 
0 0 0 0 0 0 0 0 0 
0 0 0 0 0 0 0 0 0 
0 0 0 0 0 0 0 0 0 
0 0 0 0 0 0 0 0 0 
0 0 0 0 0 0 0 0 0 
0 0 0 0 0 0 0 0 0 
0 0 0 0 0 0 0 0 0 
0 0 0 0 0 0 0 0 0 
0 0 0 0 0 0 0 0 0 
0 0 0 0 0 0 0 0 0 
0 0 0 0 0 0 0 0 0 
0 0 0 0 0 0 0 0 0 
0 0 0 0 0 0 0 0 0 
0 0 0 0 0 0 0 0 0 
0 0 0 0 0 0 0 0 0 
0 0 0 0 0 0 0 0 0 
0 0 0 0 0 0 0 0 0 
0 0 0 0 0 0 0 0 0 
0 0 0 0 0 0 0 0 0 
0 0 0 0 0 0 0 0 0 
0 0 0 0 0 0 0 0 0 
0 0 0 0 0 0 0 0 0 
0 0 0 0 0 0 0 0 0 
0 0 0 0 0 0 0 0 0 
0 0 0 0 0 0 0 0 0 
0 0 0 0 0 0 0 0 0 
0 0 0 0 0 0 0 0 0 
0 0 0 0 0 0 0 0 0 
0 0 0 0 0 0 0 0 0 
0 0 0 0 0 0 0 0 0 
0 0 0 0 0 0 0 0 0 
0 0 0 0 0 0 0 0 0 
0 0 0 0 0 0 0 0 0 
0 0 0 0 0 0 0 0 0 
0 0 0 0 0 0 0 0 0 
0 0 0 0 0 0 0 0 0 
0 0 0 0 0 0 0 0 0 
0 0 0 0 0 0 0 0 0 
0 0 0 0 0 0 0 0 0 
0 0 0 0 0 0 0 0 0 
0 0 0 0 0 0 0 0 0 
0 0 0 0 0 0 0 0 0 
0 0 0 0 0 0 0 0 0 
0 0 0 0 0 0 0 0 0 
0 0 0 0 0 0 0 0 0 
0 0 0 0 0 0 0 0 0 
0 0 0 0 0 0 0 0 0 
0 0 0 0 0 0 0 0 0 
0 0 0 0 0 0 0 0 0 
0 0 0 0 0 0 0 0 0 
0 0 0 0 0 0 0 0 0 
0 0 0 0 0 0 0 0 0 
0 0 0 0 0 0 0 0 0 
0 0 0 0 0 0 0 0 0 
0 0 0 0 0 0 0 0 0 
0 0 0 0 0 0 0 0 0 
0 0 0 0 0 0 0 0 0 
0 0 0 0 0 0 0 0 0 
0 0 0 0 0 0 0 0 0 
0 0 0 0 0 0 0 0 0 
0 0 0 0 0 0 0 0 0 
0 0 0 0 0 0 0 0 0 
0 0 0 0 0 0 0 0 0 
0 0 0 0 0 0 0 0 0 
0 0 0 0 0 0 0 0 0 
0 0 0 0 0 0 0 0 0 
0 0 0 0 0 0 0 0 0 
0 0 0 0 0 0 0 0 0 
0 0 0 0 0 0 0 0 0 
0 0 0 0 0 0 0 0 0 
0 0 0 0 0 0 0 0 0 
0 0 0 0 0 0 0 0 0 
0 0 0 0 0 0 0 0 0 
0 0 0 0 0 0 0 0 0 
0 0 0 0 0 0 0 0 0 
0 0 0 0 0 0 0 0 0 
0 0 0 0 0 0 0 0 0 
0 0 0 0 0 0 0 0 0 
0 0 0 0 0 0 0 0 0 
0 0 0 0 0 0 0 0 0 
0 0 0 0 0 0 0 0 0 
0 0 0 0 0 0 0 0 0 
0 0 0 0 0 0 0 0 0 
0 0 0 0 0 0 0 0 0 
0 0 0 0 0 0 0 0 0 
0 0 0 0 0 0 0 0 0 
0 0 0 0 0 0 0 0 0 
0 0 0 0 0 0 0 0 0 
0 0 0 0 0 0 0 0 0 
0 0 0 0 0 0 0 0 0 
0 0 0 0 0 0 0 0 0 
0 0 0 0 0 0 0 0 0 
0 0 0 0 0 0 0 0 0 
0 0 0 0 0 0 0 0 0 
0 0 0 0 0 0 0 0 0 
0 0 0 0 0 0 0 0 0 
0 0 0 0 0 0 0 0 0 
0 0 0 0 0 0 0 0 0 
0 0 0 0 0 0 0 0 0 
0 0 0 0 0 0 0 0 0 
0 0 0 0 0 0 0 0 0 
0 0 0 0 0 0 0 0 0 
0 0 0 0 0 0 0 0 0 
0 0 0 0 0 0 0 0 0 
0 0 0 0 0 0 0 0 0 
0 0 0 0 0 0 0 0 0 
0 0 0 0 0 0 0 0 0 
0 0 0 0 0 0 0 0 0 
0 0 0 0 0 0 0 0 0 
0 0 0 0 0 0 0 0 0 
0 0 0 0 0 0 0 0 0 
0 0 0 0 0 0 0 0 0 
0 0 0 0 0 0 0 0 0 
0 0 0 0 0 0 0 0 0 
0 0 0 0 0 0 0 0 0 
0 0 0 0 0 0 0 0 0 
0 0 0 0 0 0 0 0 0 
0 0 0 0 0 0 0 0 0 
0 0 0 0 0 0 0 0 0 
0 0 0 0 0 0 0 0 0 
0 0 0 0 0 0 0 0 0 
0 0 0 0 0 0 0 0 0 
0 0 0 0 0 0 0 0 0 
0 0 0 0 0 0 0 0 0 
0 0 0 0 0 0 0 0 0 
0 0 0 0 0 0 0 0 0 
0 0 0 0 0 0 0 0 0 
0 0 0 0 0 0 0 0 0 
0 0 0 0 0 0 0 0 0 
0 0 0 0 0 0 0 0 0 
0 0 0 0 0 0 0 0 0 
0 0 0 0 0 0 0 0 0 
0 0 0 0 0 0 0 0 0 
0 0 0 0 0 0 0 0 0 
0 0 0 0 0 0 0 0 0 
0 0 0 0 0 0 0 0 0 
0 0 0 0 0 0 0 0 0 
0 0 0 0 0 0 0 0 0 
0 0 0 0 0 0 0 0 0 
0 0 0 0 0 0 0 0 0 
0 0 0 0 0 0 0 0 0 
0 0 0 0 0 0 0 0 0 
0 0 0 0 0 0 0 0 0 
0 0 0 0 0 0 0 0 0 
0 0 0 0 0 0 0 0 0 
0 0 0 0 0 0 0 0 0 
0 0 0 0 0 0 0 0 0 
0 0 0 0 0 0 0 0 0 
0 0 0 0 0 0 0 0 0 
0 0 0 0 0 0 0 0 0 
0 0 0 0 0 0 0 0 0 
0 0 0 0 0 0 0 0 0 
0 0 0 0 0 0 0 0 0 
0 0 0 0 0 0 0 0 0 
0 0 0 0 0 0 0 0 0 
0 0 0 0 0 0 0 0 0 
0 0 0 0 0 0 0 0 0 
0 0 0 0 0 0 0 0 0 
0 0 0 0 0 0 0 0 0 
0 0 0 0 0 0 0 0 0 
0 0 0 0 0 0 0 0 0 
0 0 0 0 0 0 0 0 0 
0 0 0 0 0 0 0 0 0 
0 0 0 0 0 0 0 0.23090699728 0 
0.67537744288 0 0 0.80032708688 0 0 0 0.74611196258 0 
0 0 0.37819446466 0 0 0.33827115208 0 0.20749082675 0 
0 0.49860304821 0 0 0 0 0 0 0 
0 0 0 0 0 0 0 0 0.61935802821 
0 0 0 0 0 0 0 0 0 
0 0 0 0 0 0 0 0 0 
0 0 0 0 0 0 0 0 0 
0 0 0 0 0 0 0 0 0 
0 0 0 0 0 0 0 0 0 
0 0 0 0 0 0 0 0 0 
0 0 0 0 0 0 0 0 0 
0 0 0 0 0 0 0 0 0 
0 0 0 0 0 0 0 0 0 
0 0 0 0 0 0 0 0 0 
0 0 0 0 0 0 0 0 0 
0 0 0 0 0 0 0 0 0 
0 0 0 0 0 0 0 0 0 
0 0 0 0 0 0 0 0 0 
0 0 0 0 0 0 0 0 0 
0 0 0 0 0 0 0 0 0 
0 0 0 0.85360226775 0 0 0 0.91618266374 0 
0 0.97111182807 0 0.88540017596 0 0 0 0.63882520733 0 
0 0.60601628419 0 0 0.55829897465 0 0 0 0.65278843697 
0 0 0 0 0.45420542754 0 0 0 0 
0 0 0 0 0 0 0 0 0 
0 0 0 0 0 0 0 0 0 
0 0 0 0 0 0 0 0 0 
0 0 0 0 0 0 0 0 0 
0 0 0 0 0 0 0 0 0 
0 0 0 0 0 0 0 0 0 
0 0 0 0 0 0 0 0 0 
0 0 0 0 0 0 0 0 0 
0 0 0 0 0 0 0 0 0 
0 0 0 0 0 0 0 0 0 
0 0 0 0 0 0 0 0 0 
0 0 0 0 0 0 0 0 0.97564208139 
0 0 0 0 0 0 0 0 0 
0.64577197599 0 0 0 0 0 0 0 0 
0 0 0 0 0.68497041796 0 0 1.004237005 0 
0 1.0303751733 1.1607143633 0 0 1.0699300591 0 0 1.1488267643 
0 0 1.2238129724 0 0 0 1.1843088537 0 0.88095096603 
0 0 0.76879849004 0 0 0.74578119896 0 0.74944723595 0 
0 0.89850205316 0 0.74194792203 0 0 0 0 0 
0 0 0 0 0 0 0 0 0 
0 0 0 0 0 0 0 0 0 
0 0 0 0 0 0 0 0 0 
0 0 0 0 0 0 0 0 0 
0 0 0 0 0 0 0 0 0 
0 0 0 0 0 0 0 0 0 
0 0 0 0 0 0 0 0 0 
0 0 0 0 0 0 0 0 0 
0 0 0 0 0 0 0 0 0 
0 0 0 0 1.157997779 0 0 1.2165293576 0 
1.1387145897 0 0.68779933318 0 0.62653185738 0 0 0 0 
0 0.80868147983 0 1.5074413671 0 0 1.4290696011 0 1.2690621331 
0 1.1397760281 0 0 0 0 0.60115210559 0 0 
0 0.82914589507 0 0.75920538384 0 0 1.1062197113 0.94378918458 0 
0 0 1.1558909989 0 0 1.206062149 0 0 1.2642941347 
0 1.2821088908 0 0 1.2823944275 0 0 1.006509303 0 
0.92204141256 0 0 0.93902160195 0 0 0.94998701606 0 0 
0 0.6972395795 0 0 0.21788922196 0 0 0 0 
0 0 0 0 0 0 0 0 0 
0 0 0 0 0 0 0 0 0 
0 0 0 0 0 0 0 0 0 
0 0 0 0 0 0 0 0 0 
0 0 0 0 0 0 0 0 0 
0 0 0 0 0 0 0 0 0 
0 0 0 0 0 0 0 0 0 
0 0 0 0 0 0 0 0 0 
0 0 0 0 0 0 1.5103677876 0 0 
1.6587264856 0 0 1.8224781618 0 1.6182373005 0 0 1.4954706957 
0 0 1.0547176711 0 1.4959355683 0 1.3826998262 0 0 
1.6338681879 0 0 0 1.7084205856 0 0 0 0 
0 0 1.5139538705 0 1.383649106 0 1.3410552817 0 0 
1.1936401037 0 0 0 0 1.2701327725 0 0 1.3600694296 
0 0 1.3059798126 0 0 1.3538804689 0 1.3753353724 0 
0 1.3667390587 0 1.3105390675 0 0 1.2472144937 0 0 
0 1.1218117262 0 0 0 0 1.10258237 0 0 
1.0664001258 0 0.95444084089 0 0 0 0.5776526226 0 0 
0 0.46615104932 0 0.29505721175 0 0 0 0 0 
0 0 0 0 0 0 0 0 0 
0 0 0 0 0 0 0 0 0 
0 0 0 0 0 0 0 0 0 
0 0 0 0 0 0 0 0 0 
0 0 0 0 0 0 0 0 0 
0 0 0 0 0 0 0 0 0 
0 0 0 0 0 0 0 0 0 
0 0 0 0 0 0 0 0 0 
0 0 0 0 0 1.335834086 0 1.9318511447 0 
2.0567708738 0 0 1.8914416691 0 0 1.4720327171 0 1.6189938898 
0 0 0 1.763548228 1.8044543637 0 0 0 1.8724588557 
0 1.8368928903 0 0 0 1.7317787451 0 0 1.6869764141 
0 0 0 1.6871717821 0 1.709950297 0 0 0 
1.6076101867 0 1.5037448162 0 1.3543064767 0 1.2759296269 0 1.3466733444 
0 1.4622312308 0 0 0 1.5283800219 0 0 1.52202856 
0 1.4283904871 0 0 1.349059842 0 1.3048296853 0 0 
1.346653048 1.1270699934 0 0 0 0 1.1122731912 0.94806169349 0 
0.77908544516 0 0 0 0.82025223676 0 0.75419974475 0.77616913883 0 
0.49100269102 0 0.5145071666 0 0 0 0 0 0 
0 0.13617390364 0 0.46156726557 0.34937754219 0 0 0.45075004707 0 
0.39387609403 0 0 0 0 0 0 0 0 
0 0.45724562687 0 0 0 0 0 0 0 
0 0 0 0 0 0 0 0 0 
0 0 0 0 0 0 0 0 0 
0 0 0 0 0 0 0 0 0 
0 0 0 0 0 0 0 0 0 
0 0 1.9196049766 0 2.0968606229 0 2.0866025345 0 0 
0 0 1.8207502753 1.6917228928 0 0 1.6821597457 0 0 
0 1.8921921482 0 1.9377906714 0 0 0 1.888495671 0 
1.7519564115 0 1.7115081968 0 0 1.6299228969 0 1.6641330601 0 
1.7037175563 0 0 1.6103624937 0 0 0 0 1.4513610656 
1.3375952116 0 0 0 1.3142485506 0 0 0 1.4817712743 
0 1.5739471982 0 0 0 1.614921668 0 0 0 
1.5032923871 0 1.4066430846 0 0 1.4225442552 0 0 1.3814380218 
0 1.2652812701 0 1.2565726986 0 0 1.1341382957 0 0 
0.94232060419 0 0.90959693394 1.0153066945 0 1.0322995795 0.95446675466 0 0 
0 0.76101414244 0.6291454595 0.42668573609 0 0 0 0 0 
0.32519665096 0 0.78233839371 0.68863276212 0 0 0.76862908142 0 0.52788561706 
0.72315893865 0 0.62572398955 0.81146452734 0.80308674856 0 0.27745473424 0.28282912031 0.82419525204 
0.60044391207 0.65413137133 0.64062185653 0 0 0 0 0 0 
0 0 0 0 0 0 0 0 0 
0 0 0 0 0 0 0 0 0 
0 0 0 0 0 0 0 0 0 
0 0 0 0 0 0 0 0 0 
0 0 1.6319121184 0 0 1.906298858 2.0132725502 0 0 
2.1024069581 0 2.0954033974 0 1.9706396076 0 0 1.9600504065 1.819006632 
0 0 0 1.7686153316 0 0 0 0 0 
0 1.9519038986 0 0 0 1.6952421408 1.550902546 0 0 
0 0 0 1.4725047478 0 1.529017779 0 1.5747897609 0 
0 0 1.4958476211 0 0 1.3820766339 0 0 1.3439602304 
1.420342013 0 1.5602730262 0 0 0 1.6242056791 0 1.573081904 
0 0 1.4812075415 0 1.4593944204 0 0 1.4523320529 0 
0 0 1.3545324656 0 1.3221226195 0 1.2477986391 0 1.1357214521 
0 1.1181368942 0 1.0567515853 0 0.88746903591 0 0.83837420781 0 
0.72973410783 0 0 0.52613978143 0.61314882399 0.50285327103 0 0.69113801319 0 
0.86730396185 0 0.90407223592 0.91632116135 0 0 0.84566584623 0.87806502895 0 
0 0 0.89688503888 0.93010794199 0.95344738728 0 0.52420311109 0.85880000805 0.96952901277 
0.96638039008 0.82261527641 0 0 0 0 0 0 0 
0 0 0 0 0 0 0 0 0 
0 0 0 0 0 0 0 0 0 
0 0 0 0 0 0 0 0 0 
0 0 0 0 0 0 0 0 0 
0 0 0 0 0 0 0 0 0 
1.6050100569 0 2.0442814212 2.1019604067 0 2.1479818973 0 0 2.0554317674 
0 0 1.8908799629 1.7873579872 0 0 0 1.8734474318 0 
1.9249906752 1.9809550941 0 0 1.8910245965 0 0 0 1.4942115852 
0 1.4459235248 0 0 0 1.5106567677 0 1.4889346508 0 
1.4975154533 0 0 1.4910226878 0 1.4737874774 0 0 1.377209716 
0 0 1.4330393925 0 1.5551994493 0 1.6554117978 0 1.6673404654 
0 0 1.5909493117 0 1.5265899977 0 0 1.4694391077 0 
1.4734394115 0 1.4435433248 1.5048871989 0 0 1.4516357032 0 1.4298208694 
0 1.3198667152 1.1749615836 0 0 1.1785541267 1.25316896 0 0 
1.0078340083 0 0.78990185204 0 0 0.63215187701 0 0.67444951817 0 
0.85657386568 0 0.78209904073 0.85377687041 0 0 0.95801686066 0.84576412258 0.77860465455 
0.69739457547 1.0062106624 0.99505071162 0.95509489174 1.1762002134 1.1384618883 1.1393057811 1.1332172237 0.89720334505 
0.89052989648 0 0 0 0 0 0 0 0 
0 0 0 0 0 0 0 0 0 
0 0 0 0 0 0 0 0 0 
0 0 0 0 0 0 0 0 0 
0 0 0 0 0 0 0 0 0 
0 0 0 0 0 0 1.5215841181 0 1.8890141967 
0 0 2.188386719 0 0 2.2139128992 0 2.1124546866 0 
0 1.9905742073 0 0 0 1.8810146402 0 1.9616314444 0 
2.0003982056 0 0 0 1.6987449323 0 0 0 1.5506969983 
0 0 1.5234528909 0 0 0 0 1.5112880323 0 
0 1.6004557096 0 1.5364036622 0 1.4402477006 0 0 0 
0 0 1.6712944076 0 0 1.6804410374 0 1.634934266 0 
1.562358027 0 0 1.548785705 0 1.4739591482 0 1.5198088513 0 
1.523281776 0 1.5356455957 0 0 1.260266888 0 1.279122443 1.3359153234 
0 1.2550823763 0 1.1513990737 0 0.97888252021 0.62898499236 0 0.60735113483 
0 0 0.90912322945 0 0.99840682094 0 0 0 0.57411966368 
0.80782963147 0.82354951152 1.2544090457 0.95090512592 1.062610409 0.83649145477 1.0709258785 1.0796908604 1.2461712195 
1.1460484621 1.1249281084 1.0271234058 1.0519834104 0.87890354656 0 0 0 0 
0 0 0 0 0 0 0 0 0 
0 0 0 0 0 0 0 0 0 
0 0 0 0 0 0 0 0 0 
0 0 0 0 0 0 0 0 0 
0 0 0 0 0 0.77572356056 0 1.7527743565 2.0783536885 
0 0 0 2.2463021071 0 2.2823917507 0 0 0 
1.9276588077 0 0 1.9547544228 0 0 0 2.0864057043 0 
0 2.1058026694 0 2.0050891697 0 0 1.850118716 1.6328566379 0 
0 0 1.7369848425 0 1.7401419702 0 0 1.637699771 1.7400943094 
0 0 1.7284807831 0 1.6072513564 0 0 1.5504310303 0 
1.6120454346 0 0 0 1.8077451685 0 0 1.7434228394 1.6788193509 
0 0 0 1.5763158769 0 0 0 1.6114080644 0 
0 0 1.5536437 1.4424670652 0 0 1.3640916094 0 1.3956317593 
0 1.3681978606 1.2590562446 0 1.1615426568 0 0.73823231759 1.0419794437 0 
0 0.69310382358 0 0 0.83271672062 0 1.177387991 1.1178833127 0 
0 0.95892713431 0 0.61482275915 0.76520603192 0.52863603472 0.35452765966 1.1845036295 1.2994151369 
0.97718281406 0.89144148034 0.46865874243 1.3283567916 1.4252922733 1.1024805139 0.94524522001 1.0314965429 0.96386443075 
0.88394172712 0 0 0 0 0 0 0 0 
0 0 0 0 0 0 0 0 0 
0 0 0 0 0 0 0 0 0 
0 0 0 0 0 0 0 0 0 
0 0 0 0 0 0 0 0 0 
0 0 0 0 0 0 0 0 0 
0 0 0.99300107716 0 0 2.0103988937 2.1965477679 0 2.2682351417 
0 0 0 2.1928312173 0 0 0 2.0701165639 0 
2.0187507647 1.9169052763 0 0 2.0103824256 0 0 2.2148880033 2.197388672 
0 0 2.0938678065 0 0 1.7610200225 0 1.853056528 0 
0 1.8991114392 0 1.8245254809 0 1.8798274671 0 0 1.9179289373 
0 0 1.8323521953 0 1.7872254476 0 1.908685157 1.8630323291 0 
0 0 0 1.8560559619 0 1.7219651219 0 1.6704525544 0 
0 1.609502027 0 1.6576089727 0 0 1.6097705796 1.5266666242 0 
0 1.5223962367 1.4855653326 0 1.3924646569 0 1.1965468399 0 0 
0.93399455851 0 0 0.96991527498 1.0990474252 1.2054136352 0.5997117294 0.61104472777 1.1110772449 
0.63083163427 0.59973545687 0.64410572959 1.2324655552 1.4013560654 0 1.4887068675 1.4907724892 0.75243244523 
0.40934518328 0 0 1.365776008 1.2591539851 0.9216157598 0.94662193172 0.89922063377 0.97294052652 
0.98573149428 0.98605203237 0.8839175265 0.82439456376 0 0 0 0 0 
0 0 0 0 0 0 0 0 0 
0 0 0 0 0 0 0 0 0 
0 0 0 0 0 0 0 0 0 
0 0 0 0 0 0 0 0 0 
0 0 0 0 0 0 0 0 0 
0 0 0.27214928658 0 1.5768804932 0 1.8364975148 0 2.080216819 
0 0 2.2098190531 0 2.2866074933 0 2.2455861181 0 0 
2.1826019486 0 0 2.0037805414 0 0 2.1032390464 2.1434449236 0 
0 0 2.2117525748 0 2.0725649035 0 0 1.8725197167 0 
0 1.8442448994 0 1.9534200469 0 1.943793745 0 1.943848748 0 
2.0652763929 0 0 1.987317296 0 0 2.1321305824 0 2.0552322143 
0 0 0 0 2.1194233024 2.0422474671 0 1.9879367252 0 
1.9217322603 0 1.7920652237 0 0 1.7121511577 1.6972389991 0 1.7227605801 
0 1.7484961783 0 1.714981224 0 1.622421164 0 1.5925163575 0 
1.4831445366 0 1.2997546774 1.2538531678 1.1641192095 1.1397738389 0 1.1615665283 0.72674373384 
0.92391021142 1.3008006475 0.74139917874 1.353070015 0.91742040466 1.0292296406 1.3142789969 0.98359808914 1.2574348036 
1.0421615178 1.1500784449 0.84667481299 1.4486480409 1.5428958262 0 1.5412285464 1.5693871849 0 
0 1.4650253596 1.3622882762 1.2263428205 1.0652225945 1.0966065918 1.1001081605 1.0754744809 1.0640484345 
0.90728623598 0.63947857392 0 0 0 0 0 0 0 
0 0 0 0 0 0 0 0 0 
0 0 0 0 0 0 0 0 0 
0 0 0 0 0 0 0 0 0 
0 0 0 0 0 0 0 0 0 
0 0 0 0 0 0 0 0 0 
0 0 0 0 0 0 0 0 0 
0 0 1.4085246123 1.858536095 0 0 2.0536671008 0 2.1748969091 
0 0 2.3287397442 0 0 2.3064071949 0 0 2.3287913914 
0 0 0 2.0868152034 0 0 2.1138523608 0 0 
2.2003092152 0 0 0 2.2394122318 0 0 2.2135763378 0 
2.0505704523 0 1.8776298199 0 0 1.8783543144 0 0 0 
0 0 2.0467250746 0 0 0 2.1684804913 2.1754168321 0 
2.1680355578 0 0 2.2097692072 0 2.1559840848 0 0 2.1280672344 
0 2.0636905057 0 0 1.8934135367 0 0 1.8264606172 0 
1.7652214589 1.7650586177 0 0 1.752860259 1.7491282295 0 0 1.7159500941 
0 0 1.6285893899 0 1.5396441779 0 1.4194322913 0 1.3515991144 
0 0 1.236026327 0.56911536533 1.2652374421 1.2932410654 1.3478275006 1.4294354302 1.2348170208 
1.1738420847 1.4089163033 1.2009044357 1.271921585 1.163963127 1.1933020565 1.3200749135 0.56920092802 1.0405225984 
1.5603643845 0 1.4709138879 1.3747927477 0.56467850496 0 1.3662228922 1.3123375104 1.3038692775 
1.2452408014 1.2326189203 1.2358354341 0.83288329894 0.68890686599 0.62460500637 0 0 0 
0 0 0 0 0 0 0 0 0 
0 0 0 0 0 0 0 0 0 
0 0 0 0 0 0 0 0 0 
0 0 0 0 0 0 0 0 0 
0 0 0 0 0 0 0 0 0 
0 0 0 0 0 0 0 0 1.2435554827 
0 1.8416232234 0 0 2.1949330683 0 2.296772898 0 2.4117856699 
0 2.4842233666 0 2.4977803505 0 2.3123126302 2.4715089381 0 2.1954159765 
0 0 0 2.188496484 0 2.2777513518 0 2.2920560217 0 
0 2.2251651996 0 0 2.0730086086 1.9129823255 0 0 1.922212565 
0 1.9881646618 0 0 2.1759547993 0 0 2.220031709 2.2334464704 
0 2.2366287504 0 0 2.2361457869 0 2.2004668559 0 2.1778475869 
0 2.1186388017 0 0 2.0824161458 2.0333919228 0 1.9498558388 1.8593866079 
0 0 1.767227302 0 1.7007673514 0 1.666193655 1.6808345093 0 
1.6390238534 0 0 1.457382044 0 0 1.4088254028 1.3174659857 0 
0.8463134632 1.2869374534 1.3572388002 1.3498185229 1.4136863251 1.3999289814 1.4578449738 1.3288586617 1.4921812841 
1.4256052162 1.278802447 1.2869202362 1.4319717435 1.4926484552 0.71228535748 1.0957918646 1.5794625668 0 
1.4361809918 1.2243313364 0.68947307114 0.73643145361 1.1851653319 1.3390274249 1.3698581996 1.3820036899 1.3310378826 
1.3778336338 1.321523491 1.3297224899 1.1340428469 0.73721022089 0 0 0 0 
0 0 0 0 0 0 0 0 0 
0 0 0 0 0 0 0 0 0 
0 0 0 0 0 0 0 0 0 
0 0 0 0 0 0 0 0 0 
0 0 0 0 0 0 0 0 0 
0.84403872689 0 0 1.7610977417 2.1338279045 0 0 2.3939814008 0 
0 2.5437669207 0 2.6363511465 0 0 2.3988960047 0 0 
0 2.1977786001 0 2.2076760399 0 2.2734361265 0 0 2.3112853254 
0 0 2.2901131298 2.197408921 0 0 1.952873818 0 1.8935661731 
0 2.0446507239 0 2.1257237036 0 0 0 0 2.2169437739 
0 0 2.2364566163 0 2.25366145 0 2.2316727278 0 0 
2.1506726315 0 0 2.0367569314 0 1.9353774039 0 1.7647641244 0 
1.6421613472 0 1.6087913388 0 1.5938781959 0 1.5813464284 0 1.5581687677 
1.4697217476 0 1.4337244464 0.38824452385 1.3798711481 1.005342 1.2860676178 1.4979207237 1.3475062011 
1.7066840697 1.7662721713 1.6634206897 1.4615768627 1.4623254851 1.5087629501 1.5321920616 1.319430749 1.4832900236 
1.2318655194 1.3937899066 1.1836361667 1.2613402399 1.323182352 1.4995746929 1.5574408025 0.99502349249 1.1068434933 
1.5381297758 1.5658396905 0.9481543785 1.0952960262 1.3796610464 1.2330911591 0.73643526577 1.4085485062 1.3974170218 
1.3654561171 1.2482367642 1.1222934043 0.94966088205 0.7198530545 0 0 0 0 
0 0 0 0 0 0 0 0 0 
0 0 0 0 0 0 0 0 0 
0 0 0 0 0 0 0 0 0 
0 0 0 0 0 0 0 0 0 
0 0 0 0 0 0 0 0 0 
0 0 0 0 0 0 0 0 0 
0 0 0 0 0 1.6795020162 0 2.0721089312 0 
2.2864205388 0 2.5231645025 0 0 2.6522367323 0 2.6034236149 2.6650926071 
0 0 2.5567620158 0 0 2.3058804779 0 2.2550337095 0 
0 0 2.2721755838 0 0 0 2.2087476911 0 2.0924918181 
0 0 2.020545407 0 1.9969130641 0 2.1327932452 0 0 
2.1722908776 0 2.1915836061 0 0 0 0 0 2.2273155115 
2.2372442615 0 0 2.1984345758 2.1958192062 0 2.1644100488 0 0 
2.1171550957 0 2.0588546747 0 0 1.6693358972 0 1.5843479115 1.583810183 
0 1.625307724 0 1.6168407521 1.5746312318 0 0 1.5225979359 1.4723733763 
0 0 1.4620535064 1.3715291957 1.8012272135 1.3765785372 1.9217929185 1.9301590348 1.8718296789 
1.4260597622 1.6418125558 1.5047452044 1.4140069876 1.4876824686 1.2016922965 1.3136650846 1.2510172488 1.2646979137 
1.5097555784 1.5497632282 1.2175834923 1.2655374428 1.4550594227 1.1483804081 1.352993638 1.2415777565 1.3125833402 
1.0984869151 0.97636527005 1.0043016308 1.4032648487 1.4503964147 1.5023882842 1.4427831766 1.4160747493 1.2732889729 
1.2034870241 0 0 0 0 0 0 0 0 
0 0 0 0 0 0 0 0 0 
0 0 0 0 0 0 0 0 0 
0 0 0 0 0 0 0 0 0 
0 0 0 0 0 0 0 0 0 
0 0 0 0 0 0 0 0 0 
0 0 0 0 0 0 0 0 0 
0 0 0 1.3746016394 0 0 2.2160356771 0 2.4271840053 
0 0 2.5543206221 0 2.6519240865 0 0 0 2.6172978559 
0 2.589927615 0 2.5042602781 0 2.3632605758 0 0 2.240490335 
0 0 2.24905665 0 2.2084707453 0 0 2.1528607279 0 
0 2.1041629738 0 2.1016411137 0 2.1307404828 0 0 2.155098778 
0 2.1427689742 0 0 2.1842912026 2.2202734752 0 0 0 
2.1824578088 0 0 2.1491122354 0 0 2.1656593101 2.1249555766 0 
2.0615077753 0 1.8919331417 0 0 1.7473817481 1.6088259877 0 1.5915065372 
0 0 0 1.637208347 1.6061315512 0 1.5647378516 0 1.5347396576 
1.5752738412 1.4976613733 1.5892172942 1.7097366288 2.0686373216 1.4879083724 1.53575996 2.0826241674 1.4802193329 
2.0061453912 1.466201307 1.8025987349 1.4500355667 1.536410212 1.4922541641 1.3921296061 1.3261925071 1.3943504442 
1.4139835157 1.2957802507 1.2842023241 1.5490002725 1.2296588217 1.483318469 1.3909692969 1.2144941931 1.1291980385 
1.359594699 1.3476365779 1.3418441311 1.4738996661 1.4698550923 1.4992628599 1.361264348 1.2624612246 1.1830719928 
1.116034404 0 0 0 0 0 0 0 0 
0 0 0 0 0 0 0 0 0 
0 0 0 0 0 0 0 0 0 
0 0 0 0 0 0 0 0 0 
0 0 0 0 0 0 0 0 0 
0 0 0 0 0 0 0 0 0 
0 0 0 0 0 0 0 0 0 
0 0 1.3368320507 0 0 1.9505568693 0 0 2.3495118798 
0 2.4276646005 0 2.5977186768 0 2.6721956279 0 0 0 
0 2.4870861907 0 2.3144843964 0 2.299234993 0 2.2294381884 0 
2.1660394489 0 2.1164695604 0 2.0873864519 0 0 0 0 
0 2.0265178308 2.0820528864 0 2.0900410623 0 0 2.0847722668 0 
2.118104211 0 2.129953687 0 2.1338277129 0 0 2.1210866096 2.1445993956 
0 0 2.1368002347 0 1.9687546574 0 0 0 0 
1.6490006511 1.6383082519 0 0 1.6763915239 1.698643156 0 1.6297660903 1.6637165895 
0 0 1.6073651085 1.6504292398 1.6067994231 2.0055786623 2.0459515463 1.5641089723 1.5175394476 
1.9677386664 1.4578687573 1.6582782254 1.3808440824 1.4586550838 1.3621980002 1.3557087505 1.3803455714 1.3209585667 
1.4718217756 1.2655821998 1.5428538236 1.5373484885 1.3160020911 1.2596446547 1.5514520378 1.5672235396 1.3010155144 