# vtk DataFile Version 4.2
vtk output
ASCII
DATASET POLYDATA
POINTS 10000 double
-26.318705243 -19.893911131 19.487002967 -25.734666049 -19.40701511 18.267033159 -26.207616406 -18.229987685 19.170485496 
-26.042331167 -20.904812625 18.322707066 -26.762470793 -22.40218529 18.196170439 -26.319545188 -21.530433419 17.126025333 
-25.769599572 -18.304101902 17.41759376 -25.778201377 -20.025915739 16.800542259 -25.85934941 -18.54473787 15.928940079 
-25.8228477 -17.023710259 16.416213076 -26.462113077 -21.386165853 15.820223704 -25.982645311 -19.900994362 15.26383977 
-26.19517675 -21.09622484 14.486439175 -26.157338462 -18.584839982 14.376706049 -26.491987722 -21.536202212 13.319314872 
-26.38327907 -19.918267945 13.617641921 -27.308213441 -22.222559171 20.83790186 -26.90792471 -20.566497175 20.69468423 
-26.946528771 -18.953697771 20.499720912 -27.036014617 -23.256832474 19.53444209 -26.682153231 -21.591105685 19.562017006 
-27.75779622 -24.821152667 19.4667117 -26.599755608 -16.758387653 19.443938165 -27.305270345 -25.286072753 18.116988764 
-27.017599574 -23.863902341 18.08026305 -26.030692603 -16.94726485 18.033755578 -26.480051084 -15.557265164 18.695351613 
-28.066139747 -26.408653869 18.537996557 -26.092189604 -14.47025913 17.85511374 -27.503955621 -26.222268736 16.982301725 
-25.842197671 -15.689674222 17.011468477 -25.745741268 -13.252764479 17.193505748 -27.083976091 -24.554672918 16.670426018 
-26.874624347 -22.91350392 16.50313134 -25.681211578 -14.371162518 16.112549457 -28.03870225 -27.114395322 15.921330875 
-25.995784772 -12.297209688 16.155010145 -27.281596554 -25.600695009 15.53330611 -27.028349992 -23.93692882 15.177196124 
-25.859312255 -15.707047528 15.209692918 -25.882661292 -13.254488559 15.122615623 -26.97554678 -22.487606818 14.733895997 
-26.056076346 -17.14296307 14.925123069 -27.513642556 -26.702909495 14.545002538 -25.716373968 -14.446656196 14.269059976 
-27.160946799 -24.948033568 14.046234335 -27.834428302 -27.804319124 13.558514225 -28.373612598 -28.227486712 14.860196878 
-26.969361119 -23.243412102 13.474059383 -27.338136432 -26.20672622 13.0969354 -26.069232824 -17.181821935 13.506821929 
-25.85929849 -15.687554224 13.365884698 -26.036410616 -12.966160428 13.604546373 -27.114163545 -24.616429733 12.522462248 
-26.262946435 -18.562096099 12.726683962 -25.769052012 -14.071068656 12.611322022 -27.640173596 -27.365389556 12.068318024 
-26.72373626 -21.909966516 12.102137264 -26.475162343 -20.085464739 12.084531832 -26.922397909 -23.252047357 11.834050888 
-26.040010753 -16.972781905 12.063606193 -25.873411547 -15.495970591 11.674195505 -27.288762851 -25.85851717 11.548121605 
-26.641358335 -21.191634482 10.936194141 -26.242064032 -18.383373727 11.218120166 -26.18729193 -14.080633199 11.150438306 
-28.245912347 -28.391548764 10.981225006 -27.074831143 -24.336473121 10.800974149 -27.497367522 -27.166245123 10.523744369 
-26.868704677 -22.680320421 10.319268093 -26.518140118 -19.679144722 10.488600875 -26.190854697 -16.853609411 10.52651242 
-27.261864798 -25.667425491 10.03679886 -26.386145772 -15.376711985 10.11579664 -26.647977389 -18.135369133 9.660186049 
-28.093955052 -28.325614838 9.4259579539 -27.106444446 -23.980074101 9.2045143863 -27.020322271 -21.053410438 9.6155602602 
-27.467251889 -27.063026258 9.0018060325 -27.373358105 -22.422760762 8.8253747413 -27.088742869 -19.481654033 9.1279650749 
-27.237731844 -25.469301469 8.6852890853 -28.021049477 -28.314326649 7.788496142 -27.412456651 -26.715422092 7.6141965648 
-27.279595861 -24.999578787 7.4489492561 -27.607610866 -23.597994285 7.6981762121 -27.746201933 -27.569406315 6.4013490909 
-27.307931057 -25.97955563 6.2397358849 -27.461289266 -24.486144056 6.1273819041 -27.467489867 -26.85733173 5.1151364089 
-27.268870762 -25.428102319 4.675074052 -28.167865583 -27.89587261 4.6686462997 -27.609645807 -24.096077638 4.7199241912 
-27.675323333 -26.470781951 3.6696208693 -27.717138679 -24.936675432 3.1463198153 -27.918838938 -22.718466241 22.259725869 
-27.532340939 -21.098481212 21.902791176 -28.505802567 -24.07771429 21.910993821 -27.700286789 -19.506054937 21.727411793 
-27.792845599 -23.695154823 20.732004556 -27.238852225 -17.490747938 20.425663518 -28.561216898 -25.125290632 20.828920666 
-28.629434104 -26.323686637 19.897092582 -27.475255842 -15.597674996 20.20654865 -28.932407891 -27.680585864 18.972827883 
-27.271251872 -14.301918851 19.296698898 -28.411482346 -27.540423875 17.491077899 -26.736866456 -13.125336373 18.531416497 
-26.192070787 -11.816829501 17.74961591 -26.721966334 -10.279470849 17.82063359 -26.145897499 -10.906382754 16.565013187 
-28.653325257 -28.542998887 16.43660147 -26.429238174 -10.330636471 15.324891417 -29.172889482 -29.460539576 15.316972113 
-26.074906737 -11.660598841 14.719344738 -28.987889855 -29.281042221 13.703455832 -26.444418627 -10.275635499 13.786243464 
-26.108383332 -11.523211081 13.124844974 -28.51537054 -28.592025818 12.507069238 -26.173796793 -12.393008395 11.959179334 
-26.449486661 -10.472497052 12.059514603 -29.117612242 -29.546382093 11.695182609 -26.38975568 -12.749974739 10.571581135 
-29.006328636 -29.463053789 10.148385076 -26.439433466 -13.8653574 9.5311812628 -26.705882579 -16.621146995 9.0101610617 
-28.859343545 -29.493910606 8.5954570197 -26.626801485 -15.071431496 8.4862475654 -24.787059867 0.54907895234 9.5072473565 
-27.675474465 -20.856539119 8.2903596897 -27.303607835 -17.823879541 8.0761704664 -25.057584973 -0.43896864308 8.6114676257 
-27.649782083 -19.293938917 7.8830053366 -26.880072112 -13.467467027 8.1249384185 -24.780856655 0.87854711613 7.9621380708 
-27.996145811 -22.061655511 7.3351601265 -27.184160607 -16.224101583 7.5175826249 -28.917947681 -29.714158297 7.0985594342 
-27.894659906 -23.06658878 6.1369130185 -28.520331217 -28.732549963 6.0454950162 -29.081151342 -28.963082968 4.4625415866 
-28.067639734 -22.554298572 4.6448733954 -27.724703313 -23.410974958 3.4954130994 -28.527115647 -27.729568457 3.2038336308 
-27.912900801 -22.022283876 2.9954196335 -28.124467006 -26.331218577 2.2575636851 -27.650298722 -23.365165068 2.1411205493 
-28.951642812 -27.636051388 1.7979642461 -27.861108614 -24.834882841 1.5290038989 -27.825548871 -21.731528536 1.4545530205 
-28.462826163 -26.165881924 0.83351568346 -27.819305992 -23.18488722 0.82272836691 -28.297479594 -24.611719711 0.093631168125 
-25.020550439 -1.290655698 -1.7371207068 -24.913118687 -1.8889217318 -2.8055143446 -25.415244431 -2.7289030537 -1.4105264566 
-28.276725574 -20.871699091 24.52219024 -28.506862821 -22.423306956 23.978409947 -28.048978069 -21.449007849 23.134555775 
-28.098654801 -19.986724753 23.053161115 -28.912380542 -23.702693943 23.262336205 -29.295459738 -25.221811963 22.419027323 
-28.061835734 -18.044616463 21.58753231 -29.232926581 -26.484970058 21.389185983 -27.97870899 -16.526694291 21.323856817 
-29.448613829 -27.699417566 20.403959311 -29.770448532 -29.015685709 19.457399195 -29.243893139 -28.903174324 18.025027405 
-27.274669025 -11.598057246 18.816993547 -29.373990489 -29.83037674 16.933771149 -26.877063889 -9.372048275 16.539574677 
-30.072810777 -31.000306346 17.257432096 -29.881366203 -30.747854134 15.788775691 -26.882031353 -9.0059463618 14.891957613 
-29.636719951 -30.626586752 14.273390228 -26.595494048 -8.9326915557 13.301544527 -29.504692354 -30.543098915 12.703907185 
-25.754654747 -1.2119301992 13.30927312 -25.200385328 -0.06354454546 12.422862355 -25.839510898 0.42718243511 13.598547809 
-26.428045175 -8.8975714337 11.771214169 -25.325703394 -1.4097839563 11.699189726 -26.19967616 -2.450878469 12.53437286 
-25.490284858 1.3702391828 11.973095776 -29.813079459 -30.731324683 11.00101713 -26.618534511 -11.30714386 10.684177623 
-25.896246236 -2.6218772609 10.9477354 -25.050391252 0.10949848996 10.942077112 -26.585433942 -9.7799115263 10.409454815 
-26.814523461 -8.2721689633 10.219859702 -25.109426972 1.646073266 10.600464502 -25.237305303 -1.1943895088 10.061913555 
-29.783148168 -30.569195542 9.5107183303 -26.749111999 -12.243409668 9.2253179012 -26.810247649 -10.672896752 9.0924046403 
-25.777282258 -2.5586293638 9.5609160599 -24.983236145 2.0481575555 9.0599043273 -25.399710764 -1.7144013077 8.3956785321 
-29.783742008 -30.70580336 7.9663669589 -26.856895843 -11.901107941 7.7102411555 -27.184848817 -10.472020411 7.6172628119 
-24.966809867 2.4305914441 7.5299357651 -27.099651731 -14.60096438 7.0201026324 -25.532010036 -2.0917037493 7.0346910076 
-26.14520269 -3.0804475045 8.2554437089 -25.12610379 -0.42621037023 6.9826852635 -27.940022426 -20.444003825 6.8515337615 
-26.93314339 -13.023994382 6.5351563326 -30.217315325 -31.021705296 6.5952565209 -27.715111524 -18.834484661 6.5122981156 
-27.503184505 -17.329676836 6.4448105277 -24.890809493 1.2658819728 6.410126076 -28.090031338 -21.521644677 5.7685021129 
-27.278397054 -15.726874437 5.925908456 -27.269315388 -11.473569342 6.2095043993 -25.094054076 2.8961218014 6.0180024896 
-29.494315204 -29.930202938 5.6551136546 -27.053932375 -14.124186747 5.4142117459 -25.886728644 -2.6422170459 5.7730739692 
-25.262278192 -1.2129315075 5.6159597011 -27.873099599 -19.957177705 5.3224588459 -25.029483543 0.27619374433 5.2674204777 
-27.653996317 -18.368269734 5.0509965429 -27.438926699 -16.813993355 4.8398508546 -27.066530776 -12.47173643 5.0068654654 
-24.814765095 1.8643922732 4.8307057988 -27.205429738 -15.206324645 4.3267611813 -26.600365442 -8.9845657379 4.904881641 
-26.862987975 -8.1731506008 6.1030208982 -26.255868686 -7.2251130286 4.9690775243 -25.931655055 -4.0132427946 5.1990380468 
-25.406934576 -2.2990296536 4.4608143217 -25.283868053 3.3055323349 4.5797416302 -28.022555627 -21.024466225 4.1568873734 
-26.253649295 -5.6904909503 5.1177861377 -25.764083612 -4.8606983364 3.9968287793 -25.169964883 -0.72313664686 4.0011702323 
-27.808446732 -19.461465746 3.7965343436 -27.09216167 -13.549842716 3.8615044775 -26.183954036 -7.9291082143 3.7394994295 
[...]
POINT_DATA 10000
SCALARS thickness%20(mm) double
LOOKUP_TABLE default
0 0 0 0 0 0 0 0 0 
0 0 0 0 0 0 0 0 0 
0 0 0 0 0 0 0 0 0 
0 0 0 0 0 0 0 0 0 
0 0 0 0 0 0 0 0 0 
0 0 0 0 0 0 0 0 0 
0 0 0 0 0 0 0 0 0 
0 0 0 0 0 0 0 0 0 
0 0 0 0 0 0 0 0 0 
0 0 0 0 0 0 0 0 0 
0 0 0 0 0 0 0 0 0 
0 0 0 0 0 0 0 0 0 
0 0 0 0 0 0 0 0 0 
0 0 0 0 0 0 0 0 0 
0 0 0 0 0 0 0 0 0 
0 0 0 0 0 0 0 0 0 
0 0 0 0 0 0 0 0 0 
0 0 0 0 0 0 0 0 0 
0 0 0 0 0 0 0 0 0 
0 0 0 0 0 0 0 0 0 
0 0 0 0 0 0 0 0 0 
0 0 0 0 0 0 0 0 0 
0 0 0 0 0 0 0 0 0 
0 0 0 0 0 0 0 0 0 
0 0 0 0 0 0 0 0 0 
0 0 0 0 0 0 0 0 0 
0 0 0 0 0 0 0 0 0 
0 0 0 0 0 0 0 0 0 
0 0 0 0 0 0 0 0 0 
0 0 0 0 0 0 0 0 0 
0 0 0 0 0 0 0 0 0 
0 0 0 0 0 0 0 0 0 
0 0 0 0 0 0 0 0 0 
0 0 0 0 0 0 0 0 0 
0 0 0 0 0 0 0 0 0 
0 0 0 0 0 0 0 0 0 
0 0 0 0 0 0 0 0 0 
0 0 0 0 0 0 0 0 0 
0 0 0 0 0 0 0 0 0 
0 0 0 0 0 0 0 0 0 
0 0 0 0 0 0 0 0 0 
0 0 0 0 0 0.49279779667 0 0 0 
0 0 1.0386498004 0 0 0 0 0.068318005817 0 
0 0.99162197881 0 0 0 0.96153988366 0 0 0 
0 0 0 0 0 0 0 0 0 
0 0 0 0.69112564287 0 0 0 0 0 
0 0 0 0 0 0 0 0 0 
0 0 0 0 0 0 0 0 0 
0 0 0 0 0.39832065332 0 0 0 0 
0 0.44238704568 0 0 0 0 0 0 0 
0 0.43316132856 0 0 0 0 0 0 0 
0 0 0 0 0 0 0 0 0 
0 0 0 0 0 0 0 0 0 
0 0 0 0 0 0 0 0 0 
0 0 0 0 0 0 0 0 0 
0 0 1.1226379114 0 0 0 0.90313983786 0 0 
0.94316172937 0 0 0 0 0 0 0 0 
0 0.77697892942 0 0 0 0 0 0 0 
0.68165460907 0 0 0.512027171 0 0 0 0 0.59846849033 
0 0.80287523794 0 0 0.67579041267 0 0.71866981719 0 0 
0.90874519588 0 0 0 0.43353645171 0 0 0 0 
0 0 0 0 0 0 0 0 0 
0 0 0 0 0 0 0 0 0 
0 0 0 0 0 0.31211942054 0 0.8913775849 0 
0.87857303541 0 1.2138528974 1.2449666129 0 0 0 1.0287350718 0 
0 1.2577697964 0 0 1.1774526945 0 0.98517370167 0.89407134082 0 
0 0.91143949009 0 1.0139367846 0 0 0.73261062176 0 0 
0 0 0 0.72621335503 0 0 0 0 0.55662658738 
0 0.60583976037 0 0 0.77956698596 0.75051566614 0 0.78882322629 0 
0 0.8766420315 0.79439138929 0.6948018662 0 0.75453307124 0 0 0 
0 0 0 0 0 0 0 0 0 
0 0 0 0 0 0 0 0 0 
0 0 0 0.63728431112 0 0 0 1.2739182761 0 
1.6549945375 0 0 0 1.4612851175 0 0 1.4669984963 0 
0 1.6045044841 0 0 0 0 0 1.2772215221 0 
0 0 0 0 0 0.71131122468 0 0 0 
0 0 0.68244392009 0 0 0 0 1.0617458329 0 
0 0.84100263433 0 0 0.93564188283 0 1.0270489144 0 0 
0.85493985441 0 0.12656608396 0.72124095436 0 0 0.70388873937 0 0 
0 0 0 0 0 0 0 0 0 
0 0 0 0 0 0 0 0 0 
0 0 0 0 0 0 1.503784683 0 0 
0 0 1.9302952057 0 1.7837506056 0 0 0 0 
0 1.6145542574 0 1.5711688426 0 0 0 1.3595696812 0 
1.6572729387 0 1.2281912749 0 0 0 1.1640663536 0 0 
0 0 0 0 0 1.2889480078 0 1.2463429337 0 
0 0 0.98585252784 0 0 0.9039903758 0.72633305536 0 0 
0 0 0 0 0 0 0 0 0 
0 0 0 0 0 0 0 0 0 
0 1.6076512865 1.4943582258 0 1.7585451207 0 2.0795474486 0 0 
0 2.111245824 0 2.1940874707 0 1.9930740649 0 1.9397913922 0 
0 1.9124956456 0 0 0 0 0 0 0 
0 0 1.4563589555 0 0 1.5457239726 0 0 1.5356991311 
0 0 0 0 1.4854542024 0 1.3231488233 0 1.2930256887 
0 1.0220950678 0 0.49985666469 0.9069605742 0.84253612037 0.76185868867 0.98678107158 0 
0 0 0 0 0 0 0 0 0 
0 0 0 0 0 0 0 0 0 
0 0 0 0 0 0 2.0625380781 0 2.1677434387 
0 2.3812258477 0 2.2316052008 0 0 0 0 0 
2.0480905685 0 0 1.899099145 0 1.7954052509 1.8599188125 0 0 
0 2.0361064413 0 0 1.7733818054 0 0 0 1.8137065485 
0 0 1.8388796 1.731290345 0 0 0 1.3117728272 0 
0.94854082087 0 0 0 0 0 0 0 0 
0 0 0 0 0 0 0 0 0 
0 0 0 0 0 0 0 0 0 
0 1.4394594987 0 2.0032478257 0 2.3311325686 2.4581552642 0 2.3551921114 
2.2922583062 0 2.2244715167 0 2.2341081021 2.0874999707 0 0 0 
2.0772918646 0 0 0 0 2.2089267151 0 0 2.1764306218 
0 0 2.2220086579 0 0 0 0 1.6991609772 0 
1.5915282734 0 1.6538878698 0 1.5218999572 0.58001527568 1.4423602834 0.42501977653 0.57215536318 
1.2195346544 1.1606306822 1.2520261647 1.4099792033 0 0 0 0 0 
0 0 0 0 0 0 0 0 0 
0 0 0 0 0 0 0 0 0 
0 2.3311634792 0 0 0 0 0 0 0 
0 0 2.3191229398 0 0 0 0 2.0386166241 2.0884283224 
0 2.3015127853 0 2.3912540358 0 0 2.2358266552 0 0 
0 2.074009242 2.1080540404 0 1.9840345347 0 1.9413963518 0 0 
1.7684491882 0.425247491 1.2179206551 1.1842462561 1.4490359634 0 0 0 0 
0 0 0 0 0 0 0 0 0 
0 0 0 0 0 0 0 0 0 
0 1.8956744501 2.1426408592 0 2.6838273089 0 3.0105694809 0 0 
2.6235332753 0 2.4617932765 0 2.3447330183 0 2.1795134354 2.2086289701 0 
0 0 0 2.5315164913 2.4244330975 0 0 2.3151540159 0 
0 0 0 1.8959708327 0.40371551899 0.63017018534 1.6826428722 1.5980871841 1.6381733185 
0.89289519039 0.95898058909 1.4834225121 1.5371955563 0 0 0 0 0 
0 0 0 0 0 0 0 0 0 
0 0 0 0 0 0 0 0 0 
0 1.3706643638 0 0 0 2.3679373749 0 2.6648220983 0 
0 0 0 2.523898674 2.4983615841 0 0 2.5567439088 0 
0 0 2.3744456336 0 2.4517269643 0 0 0 2.4153716749 
2.3851516042 0 0 0 2.3189681899 0 2.272261901 2.103801429 0 
2.0131028587 0.49980059991 1.8789434964 0.63104698676 1.4546977807 1.907772215 1.4140994186 1.5055146423 0 
0 0 0 0 0 0 0 0 0 
0 0 0 0 0 0 0 0 0 
0 0 0 0 0 0 0 2.388769231 0 
2.570973965 0 0 2.995648143 0 3.0252908279 0 2.9253134457 2.6985298165 
0 0 2.8254621524 0 0 2.4020375749 0 0 2.3699924765 
0 0 0 2.5260533812 0 2.5714096642 0 2.5435484867 0 
0 0.65208551744 1.8239235994 1.8341663959 0.7832548333 1.5789493291 1.0275474035 1.8468872739 1.4814280732 
1.8194729117 1.4968471949 0 0 0 0 0 0 0 
0 0 0 0 0 0 0 0 0 
0 0 0 0 0 0 0 1.7440928436 0 
0 0 2.7551892649 0 0 3.1631259341 0 0 0 
0 2.900465879 0 2.7178784471 0 2.6012755965 0 2.5440550824 0 
0 2.6573056495 2.6826353626 0 2.635561088 0 2.592411343 0 0 
0 2.4093165147 2.3295856094 2.2698429645 2.0642839044 0.8502940774 1.9487388087 1.9140586921 0.66298055411 
0.88477793211 1.7918153745 2.0094032363 0 0 0 0 0 0 
0 0 0 0 0 0 0 0 0 
0 0 0 0 0 0 0 0 0 
1.0965555822 0 1.8695456035 2.3296326922 0 0 2.9110958734 0 0 
3.1766313705 3.0660762417 0 0 0 2.9074450766 0 0 0 
2.6199157214 0 0 0 2.6668151317 2.6835140318 0 2.4988335369 2.5508445733 
0 0 0 0 1.0397079857 1.951918635 0.79983905854 1.8507326941 1.4174330118 
1.8983295208 1.4544032974 1.8740265035 2.1498213248 1.8497861652 1.9284983552 0 0 0 
0 0 0 0 0 0 0 0 0 
0 0 0 0 0 0 0 0 0 
0 0 0 0 0 0 0 0 0 
2.4826434597 0 2.8264145587 0 2.9702833689 0 0 3.126161762 0 
0 3.0012709389 0 0 2.9188262322 0 2.9045533112 0 0 
2.6907221616 0 0 2.771444785 2.5831917852 0 0 0 0 
2.6359785665 2.5725843247 0 0 2.2977310042 2.160099218 1.2087790068 2.1139420725 2.0270822901 
0.87398768445 1.9695152757 0.73103225806 1.946179016 1.8107521625 2.1775669672 1.8244494646 2.1235449964 0 
0 0 0 0 0 0 0 0 0 
0 0 0 0 0 0 0 0 0 
0 0 0 0 0 0 0 0 0 
0 0 1.6283130085 0 2.049474061 0 2.3244579273 0 2.9484974261 
0 3.1195191258 0 3.1444676247 2.9714067426 0 2.9190141852 0 0 
2.6581498416 0 2.7435313306 0 0 2.5711003727 0 2.6263283983 2.6613906906 
0 0 0 2.4259749936 1.3618652124 1.1105697963 2.0065920839 1.2509525238 1.8932882388 
1.5523936327 2.1681390618 2.1414425977 0 0 0 0 0 0 
0 0 0 0 0 0 0 0 0 
0 0 0 0 0 0 0 0 0 
0 0 0 0 0 0 0 0 0 
2.638370068 0 3.0063181036 0 0 0 3.1255025634 0 0 
2.944328797 2.6492082592 0 0 0 2.6403382227 0 0 2.622776281 
2.6412223583 0 0 2.5917298073 2.4891659682 0.82524901595 1.4342206913 2.3232247224 2.2324114415 
1.4359559331 2.1507157678 2.1500620295 1.0220249474 2.1247046993 1.136900197 1.9629795503 1.3003817567 1.7395728271 
1.8790621541 2.1930042474 2.1763631355 2.1396796507 0 0 0 0 0 
0 0 0 0 0 0 0 0 0 
0 0 0 0 0 0 0 0 0 
0 0 0 0 0 0 1.245983475 1.9113088393 0 
2.1204102994 2.8100298895 0 2.961588499 0 0 3.0547192235 0 2.995278825 
0 0 0 2.9376667012 0 0 2.7682154858 2.6888190753 0 
0 2.5132225545 0 2.6680624295 0 0 2.6109766464 0 2.3041490098 
1.2831507798 1.7173630909 2.0111431618 1.9826725325 2.1683224692 2.1892901178 1.9663358662 0 0 
0 0 0 0 0 0 0 0 0 
0 0 0 0 0 0 0 0 0 
0 0 0 0 0 0 0 0 0 
0 2.3508865084 0 2.6166109574 0 2.8297019014 0 2.8407637568 0 
2.9133492152 0 0 2.9156791969 0 0 3.2529032247 0 0 
2.9571255914 2.8684473055 0 0 0 2.7200899934 0 2.6519568574 2.7203429613 
0 0 2.675614423 0.48385451645 2.4687920334 1.2730488098 2.4470167759 1.1998919377 2.2972748627 
2.2068149509 1.2629849111 1.4789890943 1.6928804418 2.1889796916 2.0564354376 2.188677846 2.1019462378 2.0031412588 
2.1901134429 0 0 0 0 0 0 0 0 
0 0 0 0 0 0 0 0 0 
0 0 0 0 0 0 0 0 0 
0 0 0 0 0 0 0 1.0712232531 1.6458691038 
0 2.3552867899 0 2.739419906 0 0 0 0 3.1198862911 
3.1726606255 0 0 0 0 2.7646138479 2.8205009702 0 0 
2.7497477356 0 0 2.6558189901 2.624074047 0 2.4875062796 1.3333170672 1.392264708 
2.2207546484 1.8670188222 2.3746614093 2.1381244095 2.0428761412 2.2663496473 2.1636299391 2.1936829781 0 
0 0 0 0 0 0 0 0 0 
0 0 0 0 0 0 0 0 0 
0 0 0 0 0 0 0 0 0 
0 0 0 0 0 0.89497575916 0 2.2051895532 0 
2.5128086099 0 0 2.7882597876 0 2.7548601535 2.7155743123 0 0 
2.9109293357 0 3.0036857206 0 0 2.9227526491 2.8524339883 0 0 
0 2.6229148603 2.7356516078 0 0 2.7038309831 2.7044536919 1.1735030073 2.6434647297 
1.2883780529 2.4833712746 2.350345752 1.803852511 1.8452093563 1.8134426226 2.3552828358 2.154380786 1.9479849443 
2.0143494557 0 0 0 0 0 0 0 0 
0 0 0 0 0 0 0 0 0 
0 0 0 0 0 0 0 0 0 
0 0 0 0 0 0 0 1.6677176979 0 
2.1045344989 0 2.5648060655 0 2.5903363174 0 2.640721422 0 2.7937022769 
0 0 3.0040513106 0 0 0 2.7431752135 0 2.7408214926 
0 2.6873956695 0 2.6470529497 0 2.6312157759 0 2.8100274559 2.8041289193 
0.79401904293 1.1956981648 2.6633190167 1.5954460377 1.7524210091 2.5315537647 1.8588741447 2.0089605198 2.2996355223 
1.8725064875 2.1659673391 2.2017498624 1.8373284931 1.8469085908 0 0 0 0 
0 0 0 0 0 0 0 0 0 
0 0 0 0 0 0 0 0 0 
0 0 0 0 0 0 0 0 0 
0 0 0 0 0 0 0 0 0.72063847112 
0 2.3549298966 0 2.619291983 0 0 2.6450111624 0 2.8336959963 
0 2.5734930874 2.5942553847 2.5519786535 0 0 2.6717428836 0 0 
2.7167699145 0 2.798945779 0 2.7184279202 2.7333759995 1.1832427112 2.5555841711 2.6157290884 
2.1792603728 1.9328117406 2.5106147185 1.8787653664 2.4179590702 2.2261451116 2.001663775 2.1414705647 2.0821128565 
0 0 0 0 0 0 0 0 0 
0 0 0 0 0 0 0 0 0 
0 0 0 0 0 0 0 0 0 
0 0 0 0 0 0 0 0 1.5553345178 
1.9434239323 0 2.4908526654 0 2.6664456734 0 2.585681278 0 0 
0 0 2.4240341666 0 2.5328543289 0 2.5432823733 0 2.7595609548 
0 0 2.5520311508 0 2.6729088336 2.6247843847 0 0 2.7906442526 
0.82961344291 1.1899625771 2.5966167788 1.4877873617 2.0374148603 2.1429807869 2.4195649713 1.8662609838 1.8607858053 
1.8909652324 2.0258203572 2.0109373745 0 0 0 0 0 0 
0 0 0 0 0 0 0 0 0 
0 0 0 0 0 0 0 0 0 
0 0 0 0 0 0 0 0 0 
0 0 0 0 0 0 0 0 0 
0 0 0 0 0 0 0 0.49703946263 1.7374184457 
0 0 2.2763807356 0 2.5881074247 2.6293598171 0 2.522460768 0 
2.6189971857 0 2.411443837 0 0 2.6115657525 0 0 0 
2.4090907758 0 0 2.5207790953 0 0 2.6978028748 2.7525719037 0 
0 1.2330620798 2.5936747853 2.7159316816 1.8784767194 2.7085607226 2.0019061448 2.5803742232 1.9123521462 
2.2422427274 2.3827922581 2.2058326599 1.8594008113 1.9019961299 0 0 0 0 
0 0 0 0 0 0 0 0 0 
0 0 0 0 0 0 0 0 0 
0 0 0 0 0 0 0 0 0 
0 0 0 0 0 0 0 0 0 
0 0 0 0 0 0 0 2.2244209036 2.3531935267 
2.6167489104 0 0 2.5867713367 0 2.4664577898 0 0 2.4758011323 
2.4179527567 0 2.3557158817 0 0 2.6145409111 0 2.6143768852 2.6891727073 
0 0 2.873568045 2.8189890165 2.789072264 0.93515225832 2.6919373268 1.2810792391 1.3103263959 
1.5206418316 2.7932949004 2.2356906433 2.6220561238 2.1434938529 1.9225860366 1.9319539746 2.0301300481 1.8658575095 
2.1916259715 0 0 0 0 0 0 0 0 
0 0 0 0 0 0 0 0 0 
0 0 0 0 0 0 0 0 0 
0 0 0 0 0 0 0 0 0 
0 0 0 0 0 0 0 0 0 
0 0 0 0 1.6092704615 2.0702712341 0 2.451013345 0 
2.6538974071 0 2.5388516017 0 2.4366136645 2.3403269227 0 2.3334048583 0 
0 2.2422453003 0 2.012980104 0 0 2.2393128818 0 2.4077877755 
0 2.6861410175 2.7144213609 0 0 2.7839097782 2.8589147252 2.1506475719 2.7936019427 
2.5972219008 2.4248376102 1.9881304902 1.92623301 2.0694912491 2.2311568853 2.3720617815 2.130022874 1.9460284402 
0 0 0 0 0 0 0 0 0 
0 0 0 0 0 0 0 0 0 
0 0 0 0 0 0 0 0 0 
0 0 0 0 0 0 0 0 0 
0 0 0 0 0 0 0 0 0 
0 0 0 0 0 0 0 0 2.3728060495 
0 2.6023650209 0 2.6157891546 2.550371717 0 2.4770884872 0 2.3102657708 
2.1519350596 2.046640212 0 2.0887983918 0 2.111850969 0 0 0 
2.4819610842 0 2.6583082994 0 0 2.7720361964 2.7914442151 2.8291758469 1.3045688598 
1.5521376677 2.9154333741 1.8741157994 2.668520957 2.2104696794 2.6453656184 1.9283061494 2.2286605509 1.8864736998 
1.8694093339 0 0 0 0 0 0 0 0 
0 0 0 0 0 0 0 0 0 
0 0 0 0 0 0 0 0 0 
0 0 0 0 0 0 0 0 0 
0 0 0 0 0 0 0 0 0 
0 0 0 1.6144302388 2.1403837431 0 2.3706953913 2.6322398943 0 
2.6657529122 0 0 2.3809244742 0 2.3100380241 0 2.2695681109 0 
2.1343366431 0 0 1.9446724455 0 1.9417174838 0 2.0983823283 0 
2.2188533091 2.3911981438 0 0 2.6891081697 0 2.7768876791 2.7687679271 0 
0 2.7251763774 1.0138977756 1.4478603642 2.8945059796 2.8749881141 1.7747454729 2.8643323861 1.9642122889 
2.009206219 2.5094419794 2.4723127043 1.9189411435 2.335675203 1.889738396 2.0457931823 1.8454121667 2.1486269895 
2.2920299359 1.9726941674 0 0 0 0 0 0 0 
0 0 0 0 0 0 0 0 0 
0 0 0 0 0 0 0 0 0 
0 0 0 0 0 0 0 0 0 
0 0 0 0 0 0 0 0 0 
0 0 0 0 0 0 0 0 0 
0 0 0 0 0 0 0 0 0 
0 0 0 0 0 0 0 0 0 
0 0 2.5620557296 0 2.662271398 0 2.6033624172 2.4664552313 0 
2.3692781084 0 2.3095153657 2.198493444 0 0 2.100696999 0 2.1022459159 
0 0 2.540007059 2.5909353244 0 2.8561107283 0 2.88503149 2.7622969588 
1.4638070465 1.7494177918 2.8723590501 1.9150613804 2.7385089566 2.6769481866 1.7653298193 2.0897899361 1.9141175573 
1.861817037 1.8904088675 0 0 0 0 0 0 0 
0 0 0 0 0 0 0 0 0 
0 0 0 0 0 0 0 0 0 
0 0 0 0 0 0 0 0 0 
0 0 0 0 0 1.1692266783 2.405370913 0 2.5866031353 
2.6638067615 0 2.5556535779 0 0 2.356191836 0 0 2.1319667866 
0 0 2.0599510742 0 1.7467052157 0 1.8014523247 0 1.9113367844 
2.0120042688 0 0 0 0 2.7266479886 2.9035039397 0 2.754898587 
0.73894639251 1.4790996761 2.9459997247 2.8113952905 1.613351302 1.9243150848 2.8013448459 1.7809939547 2.5752962592 
2.4707270292 1.8122460241 2.4297338338 1.9408445315 2.0015753733 2.0261356986 1.7480139164 0 0 
0 0 0 0 0 0 0 0 0 
0 0 0 0 0 0 0 0 0 
0 0 0 0 0 0 0 0 0 
0 0 0 0 0 0 0 0 0 
0 0 0 0 0 0 0 0 0 
0 0 0 0 2.653923898 0 2.5619091449 2.4415451361 0 
2.3229821853 0 2.0043508609 1.9446587606 0 1.9119649382 0 1.7858166209 0 
0 1.8254287325 0 0 2.1734917786 2.324667115 2.6302076599 0 2.731230602 
0 2.7571427792 2.852548311 2.8810496676 2.8101087968 2.695323026 2.081426258 2.0104204416 2.6119179784 
2.4717824727 2.2153859511 1.9604405047 2.1290949057 1.889656412 1.7246930576 0 0 0 
0 0 0 0 0 0 0 0 0 
0 0 0 0 0 0 0 0 0 
0 0 0 0 0 0 0 0 0 
0 0 0 0 0 0 0 0 0 
0 0 0 0 0 0 0 0 0 
0 0 0 0 0 0 0 0 0 
0 0 0 0 1.8486423424 0 2.1876124443 0 2.4856876499 
0 2.4720210532 0 2.2812195922 2.2530594526 0 2.0704678262 0 1.8926678076 
0 1.814141654 0 1.8409055243 0 1.9277360962 0 1.9150734449 2.1029876362 
1.7156227693 0 0 2.5103115121 0 0 2.503599422 2.573515905 2.5741360201 
0.68016266164 2.71242805 1.3398155155 2.7582610097 1.7676934303 2.55489363 1.896865197 2.5210071542 2.5026601001 
2.0477737504 1.8858702725 2.5084620236 2.4026960711 1.8859506118 1.9437718965 1.9845894289 1.7106084435 0 
0 0 0 0 0 0 0 0 0 
0 0 0 0 0 0 0 0 0 
0 0 0 0 0 0 0 0 0 
0 0 0 0 0 0 0 0 0 
0 0 0 0 0 0 0 0 0 
0 0 0 0 0 2.2975952652 2.608889793 0 2.3245785512 
0 0 2.043875984 1.9169611901 0 0 1.8111836614 0 2.0048686203 
0 1.9960086916 1.5888546222 1.8533688764 2.235450709 2.1677923461 2.2610511843 1.393030364 0.78043820792 
2.6433230426 2.5643577605 1.8622633564 2.0657767657 2.4727888854 2.2945081324 2.285387298 2.4267347216 2.360468396 
1.9602534568 2.1178189207 1.9433418231 1.7298220176 0 0 0 0 0 
0 0 0 0 0 0 0 0 0 
0 0 0 0 0 0 0 0 0 
0 0 0 0 0 0 0 0 0 
0 0 0 0 0 0 0 0 0 
0 0 0 0 0.46441270506 0 0 2.2440175758 0 
2.2122098294 0 2.202841677 2.0784400951 2.2588062639 0 2.1450317413 2.2081175659 0 
1.9609637058 0 1.8220950146 1.8707399338 1.328563915 1.9913087626 2.6179989249 1.9130613023 3.0347180258 
1.9752651052 1.9594335956 2.3456042437 2.2057479495 2.0993357371 2.2067015083 1.7452847601 2.4573755008 1.445963552 
2.5687526433 2.6272886159 1.8005695783 1.6224939413 1.9286017938 2.661499152 2.4589791987 2.3237600684 2.5638639531 
2.3639339993 2.2608494324 2.2288539818 2.3653444764 2.0637034255 1.9854410706 1.9538547108 2.1240904325 1.9571336902 
1.9397817571 1.9095249553 0 0 0 0 0 0 0 
0 0 0 0 0 0 0 0 0 
0 0 0 0 0 0 0 0 0 
0 0 0 0 0 0 0 0 0 
0 0 0 0 0 0 0 0 0 
1.0040388356 1.0857334669 0 2.2687628176 1.8562086433 2.1140751338 0 0 1.730991321 
1.8250366942 1.6717610719 0 0 0 0 0 0 0 
1.9885817635 0 0 2.5704773412 0 0 1.6115110241 1.8957792299 2.8803778493 
1.8407830209 2.6200728779 2.0858058592 2.2423614644 1.8580834103 1.9814376092 1.9426797629 2.0698750454 2.1414074814 
2.5386346225 2.6846641868 2.6681879244 2.3936934671 2.3930460954 2.6022978591 2.2503730889 2.4716447654 2.3020357373 
2.1676196916 2.0699202688 2.1964197833 1.9539149848 0 0 0 0 0 
0 0 0 0 0 0 0 0 0 
0 0 0 0 0 0 0 0 0 
0 0 0 0 0 0 0 0 0 
0 0 0 0 0 0 0 0 0 
0 0 0 0 0 1.0313748125 2.0566593279 0 1.4890580725 
0 0.79874407122 1.5922938871 0 0 0 0 0 0 
0 0 0 0 0.6319905598 1.5746882632 0 1.7525634899 0 
0 2.7208870893 0 0 0 0 0 0 0 
0 3.067910975 0.44225369543 0 0 1.1579572062 1.2714727978 1.1721456729 2.7914392311 
2.6684058483 1.2279553243 2.3837110594 1.6380512879 1.6370174342 2.2251297685 1.565312178 2.0180819052 2.2934649515 
1.8276370605 2.2997022301 2.4096394547 2.3472134734 2.4083349398 2.5780475485 2.6501253645 2.3013178158 2.6308193541 
2.2161211779 2.182742727 2.3776959895 2.3095583153 2.120362603 2.2432785885 2.2539053105 2.037258816 2.0087306861 
0 0 0 0 0 0 0 0 0 
0 0 0 0 0 0 0 0 0 
0 0 0 0 0 0 0 0 0 
0 0 0 0 0 0 0 0 0 
0 0 0 0 0 0 0 0 0 
0 0 0 0 0 0.82538212095 0 0 0 
0 0 0 0 0 0 0 0 0 
0 0 0 0 0 0 0 0 2.0581729435 
0 0 0 0 2.68008273 0 0 0 0 
2.9646908717 0 0 0 0 0 0 0 0 
3.2524127135 0 0 0 0 0 0 3.0266924704 0 
0 0 0 0 0 0 0 0 0 
2.6449374439 2.3839774044 0 2.2826094272 0 2.0085702764 2.62940496 2.3337295147 2.921408553 
2.3351749581 2.826034192 2.8381728498 2.6299592106 2.2507737235 2.1247146202 2.550862267 2.0366562658 2.276401947 
2.2509612672 0 0 0 0 0 0 0 0 
0 0 0 0 0 0 0 0 0 
0 0 0 0 0 0 0 0 0 
0 0 0 0 0 0 0 0 0 
0 0 0 0 0 0 0 0 0 
0 0 0 0 0 0 0 0 0 
0 0 0 0 0 0 0 0 0 
0 0 0 0 0 0 0 0 0 
0 0 0 0 0 0 0 2.9800261156 0 
0 0 3.1286512708 0 0 0 0 0 0 
0 0 0 0 3.1565269737 0 2.8959731664 0 0 
0 2.8951480709 0 0 0 0 0 0 0 
0 2.3963731948 1.7151010077 2.5077527523 2.2640890361 2.2124760519 2.854129824 2.1020059772 2.7070452736 
2.570753103 2.0332871621 2.3107258404 0 0 0 0 0 0 
0 0 0 0 0 0 0 0 0 
0 0 0 0 0 0 0 0 0 
0 0 0 0 0 0 0 0 0 
0 0 0 0 0 0 0 0 0 
0 0 0 0 0 0 0 0 0 
0 0 0 0 0 0 0 0 0 
0 0 0 0 0 0 0 0 0 
0 0 0 0 0 1.4925502396 0 2.6767518631 2.860024956 
0 0 0 3.1125935364 0 3.4001245499 0 0 0 
0 0 2.9060958686 0 0 0 2.7221662904 0 2.5425362397 
2.8105706118 2.812870854 1.8300969785 2.9428191596 2.9539487822 2.0858340457 2.829401762 2.1247512418 2.0085177541 
2.5100640307 2.280226036 0 0 0 0 0 0 0 
0 0 0 0 0 0 0 0 0 
0 0 0 0 0 0 0 0 0 
0 0 0 0 0 0 0 0 0 
0 0 0 0 0 0 0 0 0 
0 0 0 0 0 0 0 0 0 
0 0 0 0 1.0734920005 0 0 3.2144232515 0 
0 3.431145388 0 3.3688989002 3.4168453305 3.0239916462 2.9208737758 0 0 
2.7755974249 0 2.7028290437 0 2.1026709612 2.9382179968 2.9780218228 1.9360830877 1.9246383525 
2.6473486936 2.7038745575 2.1574449959 2.2478085588 2.8408214206 2.7124502016 2.4583171612 0 0 
0 0 0 0 0 0 0 0 0 
0 0 0 0 0 0 0 0 0 
0 0 0 0 0 0 0 0 0 
0 0 0 0 0 0 0 0 0 
0 0 0 0 0 0 0 0 0 
0 0 0 1.6716599876 0 2.4248327672 0 3.0519197769 0 
3.2792557341 0 0 0 0 0 2.7453534472 2.7758767963 0 
0 2.8705417026 0 2.8374220314 0 2.8256674726 2.7218703559 2.0095413306 2.9930739657 
1.8288771702 2.6890877941 2.0869672457 2.7053259656 2.8576263923 2.6381659887 2.601859354 0 0 
0 0 0 0 0 0 0 0 0 
0 0 0 0 0 0 0 0 0 
0 0 0 0 0 0 0 0 0 
0 0 0 0 0 0 0 0 0 
0 0 0 0 0 0 0 0 0 
0 0 0 0 0 0 0 2.4538158063 0 
2.8203617158 0 3.1648859145 0 3.1138461903 3.2602477121 0 3.2567825964 3.2074558872 
3.0305480062 0 0 2.903807169 0 3.0321967809 0 0.57001793127 1.0799521467 
2.5874315998 2.5758844587 1.9491621858 2.2812422762 2.3335345199 2.5116629448 0 0 0 
0 0 0 0 0 0 0 0 0 
0 0 0 0 0 0 0 0 0 
0 0 0 0 0 0 0 0 0 
0 0 0 0 0 0 0 0 0 
0 0 0 0 0 0 0 1.9594471552 0 
0 2.936913403 0 0 0 0 2.918515078 0 2.8846165379 