# vtk DataFile Version 4.2
vtk output
ASCII
DATASET POLYDATA
POINTS 10000 double
-26.10996038 -19.11230796 19.242166052 -25.981144683 -20.85438133 18.250116333 -26.330797297 -20.288159356 19.333667399 
-25.707585819 -19.45221741 18.028636288 -26.067790135 -17.953936075 18.616837271 -26.45959873 -21.783017813 17.483708809 
-25.772636657 -18.20238941 17.448267754 -25.847524102 -20.473575591 16.913473871 -25.703330748 -19.218630377 16.476701922 
-26.405876858 -21.380823938 16.211829222 -25.887517415 -17.643575932 16.320376901 -25.81084183 -16.210701125 16.386625906 
-26.036020183 -20.233526938 15.347880919 -25.941467467 -18.681733532 15.280393799 -26.636983186 -21.768399878 15.104016824 
-26.169136776 -20.990312088 14.076770861 -26.299798545 -19.556660463 14.063373173 -26.530043895 -21.322727237 12.872469194 
-27.120851329 -21.925614297 20.59151161 -26.749822772 -20.754268896 20.383106279 -26.87141714 -19.347005587 20.545592189 
-27.057072758 -23.069875261 19.801691952 -26.659982349 -21.761764888 19.146363821 -26.651783807 -18.083034205 19.882041055 
-27.076551519 -23.915020362 18.803616286 -27.773992155 -24.642603478 19.616041155 -26.403098894 -16.781399215 19.160918375 
-27.328056001 -25.170075874 18.354878291 -26.850318537 -22.780114483 18.1564131 -26.48605491 -15.567498886 18.706185191 
-27.890585691 -26.405272739 18.110649725 -25.974090634 -16.727176778 17.721855484 -27.012445761 -23.934467236 17.395276576 
-25.89293686 -15.215262112 17.45756554 -27.213278915 -25.311750178 17.064392374 -25.761524794 -13.723108928 17.397550476 
-27.670327843 -26.558349512 16.814174374 -26.853148645 -22.759189669 16.435986736 -25.970670059 -12.366286601 17.207004213 
-25.687966379 -14.444499131 16.237056427 -25.829588396 -12.975814738 16.094602492 -27.034017071 -24.179204142 16.019184995 
-27.289747529 -25.657158893 15.74953603 -27.900726208 -26.935233452 15.422561792 -26.029876295 -16.969006082 15.086949367 
-25.799263716 -15.26213897 15.257710702 -27.11994745 -24.654079823 14.720140066 -27.033951069 -23.123033273 14.962469478 
-25.790776631 -13.66533709 14.913423019 -27.334741364 -26.089610771 14.425076271 -27.651846226 -27.37663014 14.111135253 
-26.182544247 -18.129915922 14.149147808 -25.888047314 -15.892235726 14.173371023 -25.713030147 -14.447351961 13.871509094 
-27.017832492 -23.790907064 13.674871426 -26.880279292 -22.327292079 13.900489365 -28.270119737 -28.356381947 13.842082697 
-27.204585825 -25.259879212 13.359956803 -26.048710813 -17.035440924 13.473500571 -26.030045955 -12.991368397 13.523657135 
-27.40811467 -26.671849558 12.962713513 -25.836518583 -15.524316906 12.889586582 -27.97750688 -27.889725849 12.526368939 
-26.865845244 -22.841152346 12.678963122 -26.443023345 -19.892097998 12.694523012 -26.249311291 -18.464787076 12.757097054 
-25.770642223 -14.067694237 12.476156159 -27.069109141 -24.295839176 12.374943612 -26.013643331 -16.785561194 12.201465203 
-27.26496507 -25.689502767 11.945019389 -27.495915844 -27.06655834 11.481605555 -26.922898876 -23.25540659 11.378230986 
-26.735349348 -21.936278465 11.671286229 -26.556855449 -20.641444591 11.444344468 -26.179416336 -17.958555497 11.505154347 
-25.877351679 -15.338822825 11.549501326 -26.36993642 -19.295250244 11.215542514 -26.20691512 -13.990955018 11.126539071 
-28.043043633 -28.144941918 10.800106555 -27.107322325 -24.567816958 10.999058458 -26.057207199 -16.620797193 10.8281319 
-27.29917141 -25.932860837 10.53830843 -27.494495733 -27.198258894 9.9380233319 -26.941955642 -23.261130772 10.063377538 
-26.770071199 -21.924005981 10.377716512 -26.795574573 -20.555292878 10.080055943 -26.37546674 -17.963332434 10.189934019 
-26.360419933 -15.250290026 10.265810359 -27.123923598 -24.670985836 9.6795846687 -26.753990511 -19.190536736 9.7357116109 
-28.118999768 -28.345307907 9.4372112387 -26.590768593 -16.550816474 9.6173667062 -27.312117693 -26.024882109 9.1021865669 
-27.256933505 -21.856969975 9.1320717199 -27.261818284 -23.362347015 8.858741219 -27.50052715 -27.273171049 8.4286724159 
-27.197777847 -24.825349505 8.3665839766 -28.02450259 -28.375998545 8.0129595298 -27.314112214 -26.031854737 7.6219973223 
-27.596091686 -23.80518573 7.6948578677 -27.514531411 -27.151493495 6.8420688819 -27.355073854 -24.745517586 6.9136099594 
-28.210646859 -28.267462864 6.7425186188 -27.281708672 -25.765561996 6.1224818526 -27.907675884 -27.802941442 5.5576474849 
-27.409264396 -26.632221516 5.2053639588 -27.571051611 -24.189387038 5.7110940486 -27.283583191 -25.109087882 4.7546492287 
-27.974901348 -27.316457772 4.1513852952 -27.438166288 -26.051701563 3.8404141999 -27.711100235 -24.82137417 3.2355453816 
-28.057450967 -26.510530651 2.7773853088 -28.212923222 -23.136689246 22.532575968 -27.585856461 -21.690154181 21.954211478 
-27.654881078 -22.940955123 21.331641806 -27.376960009 -20.442311379 21.507790235 -27.898629819 -23.954413309 20.621441118 
-27.826154899 -19.193286036 21.77175748 -27.560610891 -18.044994439 20.990203581 -27.235321769 -16.967469083 20.338830496 
-28.154692049 -25.88618583 19.327529106 -28.578817124 -25.285931216 20.722904374 -27.277580487 -15.778949288 20.040434962 
-28.785754939 -27.359213807 18.992462214 -26.59204693 -14.244912018 18.461937416 -28.516564686 -27.596744454 17.73379658 
-26.53227698 -12.850444367 18.325805468 -26.364845351 -11.398839657 17.998096876 -26.592515131 -10.293605176 17.567842467 
-28.821887747 -28.764418251 16.60764718 -28.25922061 -27.680583433 16.453831986 -26.026653616 -11.346691218 16.314685936 
-26.471151948 -10.177332911 16.147176174 -28.468678261 -28.335918198 15.21412831 -26.067880251 -12.177302562 14.983338314 
-26.356879216 -10.622829628 14.819899035 -29.086809993 -29.362773593 14.275254391 -26.07637181 -11.588461098 13.778076504 
-28.907993678 -29.112675182 12.908980919 -26.450336311 -10.322155547 13.308561339 -26.151705408 -11.478563565 12.478612323 
-26.149567983 -12.736755723 12.007252966 -28.623145958 -28.839425251 11.658275545 -26.541676092 -11.386925733 11.16613394 
-26.427260501 -12.61683842 10.563701365 -28.976842496 -29.387848321 10.35226607 -26.394876136 -13.829255966 9.7226614538 
-28.802077984 -29.395460712 8.8326339481 -26.906266723 -17.779132569 8.9177658822 -26.517191074 -15.116477573 8.9126735809 
-26.761512243 -12.519743988 9.1712155741 -27.341411979 -20.289316886 8.8289428363 -24.780166775 0.17564482413 9.0294363991 
-27.380472022 -18.930155029 8.3160406212 -26.851000442 -16.347733578 8.2476544315 -26.795185427 -13.758857286 8.3900324682 
-27.764970448 -22.444177861 7.8169104661 -27.874290029 -21.184125961 7.9167425445 -24.756814075 0.96537079671 8.0760356738 
-27.439755613 -17.521999998 7.6542210626 -27.00075284 -14.959005064 7.6157567389 -28.68283176 -29.439542365 7.3194653011 
-27.855866182 -23.12554591 6.616236218 -28.808589137 -29.091195993 5.8458549459 -28.023963129 -22.729124073 5.4035900178 
-28.617769389 -28.524259337 4.6363954649 -27.692714178 -23.790325117 4.3508887365 -28.084247662 -22.384962494 4.1242367454 
-28.66032681 -27.928361743 3.1632030485 -27.674880753 -23.314045205 3.0296659375 -27.875051815 -22.026068511 2.8477790275 
-27.907994789 -25.227438411 1.8870149589 -27.706553486 -23.79026277 1.8822830938 -28.833937999 -27.497231083 1.9410130524 
-28.331145854 -26.369209887 1.3882708486 -27.709796953 -22.0859807 1.5666680863 -27.836492176 -23.092342284 0.77618379063 
-28.024671606 -24.532679884 0.5826200692 -28.564432499 -25.740547081 0.28714736829 -28.08926372 -21.830739636 0.11505541881 
-24.951735777 -1.7710734219 -1.98291119 -25.089928941 -2.2206182249 -3.2319719538 -25.080363314 -0.9210148001 -3.0318631606 
-28.557761404 -20.777495736 25.127412346 -28.61213355 -22.167260548 24.433199023 -28.089185795 -20.968161373 24.010763645 
-28.530186548 -19.717233553 24.223885011 -28.918991491 -23.270813569 23.749458975 -28.122575685 -21.952317036 23.12330988 
-27.961266432 -20.351554866 22.820399983 -29.152336797 -24.345338512 23.003046948 -28.578871644 -19.003959251 22.959784436 
-28.533287266 -24.242953906 21.76692259 -29.211220614 -25.465297962 22.011947185 -29.250243335 -26.659213476 21.278733106 
-28.455203082 -17.858330688 21.936534654 -28.03307196 -16.431919362 21.35862175 -28.790444489 -26.554227481 20.117310431 
-29.42782657 -27.743189635 20.25406448 -27.411835579 -14.587371504 19.617163208 -29.515650058 -28.665357295 19.202219143 
-27.564040751 -13.307566525 19.196377442 -27.387693198 -11.885074689 18.938196356 -29.141348981 -28.769076089 17.934156644 
-29.886086036 -29.898053991 18.349186328 -27.608992682 -10.514596854 18.779301498 -29.431824063 -29.948953834 17.038551295 
-27.047861944 -9.1445377655 16.918324501 -29.899869212 -30.793210437 16.06216553 -29.219711891 -29.582263092 15.613743752 
-26.871019075 -9.1884591272 15.375423976 -29.685585091 -30.580726521 14.675508495 -26.662041346 -9.1881529278 14.030280472 
-30.223386424 -31.448918863 13.746698299 -29.420566419 -30.396836639 13.232762653 -26.474350588 -8.8923303608 12.64565355 
-25.51664794 -0.8632243258 13.091934963 -25.667872994 -1.8600069534 12.306708408 -25.225532544 0.19661477589 12.409511206 
-29.980316452 -31.23639553 12.239868476 -29.295873265 -30.001542357 11.802846202 -26.471853481 -10.123650258 11.8686397 
-26.894382716 -7.6290771583 12.014938287 -25.20894852 -0.96247993491 11.464549672 -26.478968006 -8.7655789455 11.188946338 
-25.025919285 0.71619275986 11.195617606 -25.80567657 1.6539744871 12.183662145 -29.839107759 -30.715706123 10.860385824 
-25.942107162 -2.5903682903 11.271921982 -26.56642931 -9.9953416831 10.40702257 -25.417950349 -1.969365333 10.289534121 
-25.104149509 -0.38911826446 10.252615139 -25.530834785 2.0069874997 11.036902712 -26.66257021 -11.251890373 9.7365021951 
-26.898108251 -8.7150383113 9.8111347903 -24.849236443 1.1878630062 9.8150801418 -25.351010732 2.3853716425 9.8404376952 
-29.64817351 -30.393631289 9.4958272562 -26.999869199 -9.9568925525 9.0066310799 -25.823678979 -2.5086450193 9.0637078213 
[...]
POINT_DATA 10000
SCALARS thickness%20(mm) double
LOOKUP_TABLE default
0 0 0 0 0 0 0 0 0 
0 0 0 0 0 0 0 0 0 
0 0 0 0 0 0 0 0 0 
0 0 0 0 0 0 0 0 0 
0 0 0 0 0 0 0 0 0 
0 0 0 0 0 0 0 0 0 
0 0 0 0 0 0 0 0 0 
0 0 0 0 0 0 0 0 0 
0 0 0 0 0 0 0 0 0 
0 0 0 0 0 0 0 0 0 
0 0 0 0 0 0 0 0 0 
0 0 0 0 0 0 0 0 0 
0 0 0 0 0 0 0 0 0 
0 0 0 0 0 0 0 0 0 
0 0 0 0 0 0 0 0 0 
0 0 0 0 0 0 0 0 0 
0 0 0 0 0 0 0 0 0 
0 0 0 0 0 0 0 0 0 
0 0 0 0 0 0 0 0 0 
0 0 0 0 0 0 0 0 0 
0 0 0 0 0 0 0 0 0 
0 0 0 0 0 0 0 0 0 
0 0 0 0 0 0 0 0 0 
0 0 0 0 0 0 0 0 0 
0 0 0 0 0 0 0 0 0 
0 0 0 0 0 0 0 0 0 
0 0 0 0 0 0 0 0 0 
0 0 0 0 0 0 0 0 0 
0 0 0 0 0 0 0 0 0 
0 0 0 0 0 0 0 0 0 
0 0 0 0 0 0 0 0 0 
0 0 0 0 0 0 0 0 0 
0 0 0 0 0 0 0 0 0 
0 0 0 0 0 0 0 0 0 
0 0 0 0 0 0 0 0 0 
0 0 0 0 0 0 0 0.73377482623 0 
0 0 0 0 0 0 0 0 0 
0 0 0 0 0 0 0 0 0 
0 0 0 0 0 0 0 0 0 
0 0 0 0 0 0 0 0 0 
0 0 0 0 0 0 0 0 0 
0 0 0 0 0 0 0 0 0 
0 0 0 0 0 0 0 0 0 
0 0 0 0 0 0 0 0 0 
0 0 0 0 0 0 0 0 0 
0 0 0 0 0 0 0 0 0 
0 0 0 0 0 0 0 0 0 
0 0 0 0 0 0 0 0 0 
0 0 0 0 0 0 0 0 0 
0 0 0 0 0 0 0 0 0 
0 0 0 0 0 0 0 0 0 
0 1.1304144377 0 0 1.0829770607 0 0 0 0 
0 0 0 0 0 0.94897257141 0 0 0 
0 0.92706486177 0 0 0 0 0 0 0 
0 0 0 0 0 0.8818328762 0 0 0 
0.76785150854 0 0 0 0 0 0 0 0 
0 0 0 0 0 0 0 0 0 
0 0 0.62490198018 0 0 0 0 0 0 
0 0 0.52479674339 0 0 0 0 0.5365659283 0 
0 0 0 0.54836239066 0 0 0 0 0 
0 0 0 0 0 0.59381868521 0 0 0 
0 0 0 0 0 0 0 0 0 
0 0 0 0 0 0 0 0 0 
0 0 0 0 0 0 0 0 0 
0 0 0 0 0 0 0 0 0 
0 0 0 0 0 0 0 0 0 
0 0 0 0 0 1.2422986249 0 0 0 
1.2128213699 0 1.0706904746 0 0 0 0 0.84921775743 0 
0 0 0 0 0.83424554021 0 0 0 0 
0 0 0 0.7664798184 0 0 0 0 0 
0.70129052682 0 0 0 0 0 0 0 0.6549790952 
0 0 0 0 0.57823705174 0 0.60189182276 0.63827781217 0 
0.65214930793 0 0 0.70209861603 0 0.72968099143 0 0 0.78260243251 
0 0 0.71745326508 0 0 0 0 0 0 
0 0 0 0 0 0 0 0 0 
0 0 0 0 0 0 0 0 0 
0 0 0 0 0 0 0 0 0 
0 0 0 0 0 0 0 0 0 
0 1.4563013002 1.3410470454 0 1.4029473335 0 1.3226550482 0 0 
0 0 1.4561373202 0 1.2345268176 0 0 1.1982525463 1.0442183948 
0 0 1.0050093051 0 1.06388138 0 0 0 1.0181780763 
0 0.96504125011 0 0 0 0.90339375307 0 0 0 
0 0.66700255836 0.86116738858 0 0 0 0 0 0.71430221722 
0 0.69744866415 0.82195289064 0 0 0.83430269722 0 0.80125817358 0 
0.92237627513 0 0.84210980246 0.81419172326 0 0 0.76262114831 0.58135847787 0.69721113197 
0 0 0 0 0 0 0 0 0 
0 0 0 0 0 0 0 0 0 
0 0 0 0 0 0 0 0 0 
0 0 0 1.2074452393 0 1.3675275534 0 0 0 
1.5821372732 0 0 0 0 1.6918756765 0 0 1.5096976651 
0 0 0 0 1.5413312078 0 0 1.3167124334 0 
0 1.266996986 0 0 0 1.35455369 0 0 0 
1.3130059541 0 0 0 0 0 0 0 0 
0 0.93143012721 0 0 0 0 1.1038012363 0 0 
0 0.88465734813 0 1.1322909285 0 1.161225586 0 0 0.95742362228 
0.94553167852 0 0 0.89820466968 0 0.84226305397 0.69334650556 0 0 
0.70532826063 0 0 0 0 0 0 0 0 
0 0 0 0 0 0 0 0 0 
0 0 0 0 0 0 0 0 0 
0 0 0 0 0 1.3923017492 0 0 1.6532783976 
0 1.7208050337 0 0 0 1.7829166499 0 0 1.8476256264 
0 1.8128977402 0 1.8362975461 0 0 1.6303903444 0 0 
0 1.6152054528 0 0 1.3983882995 0 0 0 0 
0 1.3509923474 0 0 1.2459168997 0 0 1.1987647998 0 
0 0 0 0 0 1.2341299947 0 0 0 
0 1.2116826577 0 0 1.1830494458 1.1386898957 0 0 0 
0.82982088373 1.0911009496 0.87100878265 0.84993262215 0 0 0 0 0 
0 0 0 0 0 0 0 0 0 
0 0 0 0 0 0 0 0 0 
1.4610258241 0 0 1.5578402043 0 1.8036843326 0 1.9234457802 0 
0 2.0129135926 0 0 0 0 0 0 1.9190778166 
0 0 0 1.7358467172 0 0 1.761652955 0 0 
1.779899636 0 1.7019881722 0 0 0 0 0 1.5043697315 
0 0 1.6056500275 0 0 0 1.5173994807 0 0 
1.4970387061 0 1.5275558283 0 0 1.0757175867 0 0.76775133329 1.0619745826 
0.8692458781 0.86911971059 0.98551637667 0 0 0 0 0 0 
0 0 0 0 0 0 0 0 0 
0 0 0 0 0 0 0 0 0 
0 1.318693032 0 0 1.7461802897 0 0 2.123644262 0 
0 2.2210292574 0 2.1041008059 0 2.0611850964 0 2.0880856422 0 
0 2.068339015 0 0 0 1.9575222936 0 1.9124348771 0 
0 0 0 0 0 0 1.9421251543 1.7590742534 0 
0 1.6651473481 0 0 0 1.769469427 0 0 0 
1.5315286061 0 1.46509286 0 1.4200855024 0 1.3931041932 0 0.86897199872 
1.2430903665 1.0162243458 1.0493991041 1.1329077604 0 0 0 0 0 
0 0 0 0 0 0 0 0 0 
0 0 0 0 0 0 0 0 0 
0 0 0 0 0 0 1.7217946655 0 2.0525530144 
0 2.2794379274 0 0 2.3835400718 0 0 2.3183576807 0 
2.2974806231 0 0 0 0 2.1237347721 0 2.1537036573 0 
0 0 2.0240048642 0 2.0228358679 0 2.1386235562 0 2.092433319 
0 0 0 2.0963505713 0 2.0077094512 0 1.970104238 0 
2.0035753616 0 1.8795564396 0 1.7753792824 0 0 0 0 
1.3432010394 0.81475802049 0.87247994411 1.2761522081 1.2240307843 0 0 0 0 
0 0 0 0 0 0 0 0 0 
0 0 0 0 0 0 0 0 0 
0 0 0 0 0 0 0 0 1.5402147601 
0 0 0 2.0529610375 0 0 2.5489058316 0 2.5223567753 
0 0 0 2.2730345014 0 2.2818675502 0 2.2935617907 0 
0 0 2.1275835064 0 0 0 0 2.305093465 2.2052603639 
0 0 0 0 0 2.0815857671 0 0 0 
1.842207733 1.8012142608 0 1.7109679701 1.6816287459 0 0 1.6197576206 0 
1.5443787555 1.5167221053 1.0271281555 1.1802781449 1.3932770685 0 0 0 0 
0 0 0 0 0 0 0 0 0 
0 0 0 0 0 0 0 0 0 
0 0 0 0 0 1.474680086 0 0 1.8602530289 
2.1142614338 0 0 2.3300177147 0 2.4971489802 2.6694844225 0 0 
2.741083771 0 0 2.5019986673 0 2.4907724775 0 0 2.3390616877 
0 2.3073994093 0 2.1972930653 0 2.2630753819 0 0 2.3366422665 
0 0 2.369269814 0 2.313464225 0 2.2836652512 0 2.2635466579 
0 0 0 2.0127265423 0 0 1.9235686779 0.50189661948 0.57743666935 
0.69279983305 0.79782410742 0.95299803827 1.5598350622 1.5056491515 1.1820241545 1.1208608471 1.415478497 1.6223505119 
0 0 0 0 0 0 0 0 0 
0 0 0 0 0 0 0 0 0 
0 0 0 0 0 0 0 0 0 
0 0 0 0 0 2.381724104 0 0 2.9065573449 
0 2.7623319095 0 0 0 2.5005704922 0 2.5292734624 0 
2.5475257898 0 0 2.318206932 0 0 0 2.4027395992 0 
0 2.4993673349 0 2.4528488989 0 0 0 0 2.1385507757 
0 0 2.0359129506 1.8707660545 0.55483864585 1.814053879 1.7483706015 1.6894948952 1.0589209973 
1.6863721423 1.3309650912 1.5111284759 1.7698713629 0 0 0 0 0 
0 0 0 0 0 0 0 0 0 
0 0 0 0 0 0 0 0 0 
0 0 0 0 0 0 0 0 1.7660089319 
0 2.1584547173 0 0 2.6103695331 0 2.8029633285 0 2.9923203822 
0 0 2.7130966581 0 2.7663420028 0 0 2.5432155867 0 
0 2.4014758261 2.497167781 0 0 2.5001963639 0 2.5288633495 0 
2.4853326376 0 2.4662209405 2.414419297 0 0 2.2918796846 0 2.1781177172 
0 2.0464250136 0.56231924562 1.9944523844 0.65262323907 0.74308904754 0.93775527319 1.72893034 1.2907831425 
1.4886306198 1.7290824604 0 0 0 0 0 0 0 
0 0 0 0 0 0 0 0 0 
0 0 0 0 0 0 0 0 0 
0 0 0 0 1.5887085176 0 2.4062848701 2.5955874956 0 
0 0 3.0507217403 0 2.9457061908 0 0 0 2.738614239 
0 2.7682196829 0 2.7260859839 0 2.4870082497 0 2.5187050678 0 
0 2.5703667741 0 2.5858589525 0 2.5812899434 0 0 2.3051110024 
0 2.1465394502 0.71035993029 0.7224061925 1.9317093166 0.6737051662 1.8822201295 1.8245043592 1.793672735 
0.99629075604 1.8964406063 1.8193647505 1.3320418149 1.5824024991 1.639078852 1.7765325259 1.9113894767 0 
0 0 0 0 0 0 0 0 0 
0 0 0 0 0 0 0 0 0 
0 0 0 0 0 0 0 0 0 
0 0 0 0 0 1.9396630351 2.2642217219 0 0 
2.7931481367 0 2.9446065805 0 3.0861504818 0 0 2.9481291274 0 
0 0 0 0 2.6633169641 0 0 2.5845453936 0 
0 2.6329567303 0 0 0 2.612006193 2.5871151193 0 2.5684162304 
0 2.505265656 0 2.4192853719 0 0 2.2633910214 2.3562251311 0.98912133884 
2.1019754003 0.90093967967 2.0319108577 0.79553870603 0.90518664214 1.2600099819 1.6125355121 1.8158560237 1.9093822158 
2.0093120682 0 0 0 0 0 0 0 0 
0 0 0 0 0 0 0 0 0 
0 0 0 0 0 0 0 0 0 
0 0 0 0 0 0 0 0 0 
1.6487068717 0 0 2.4950404696 0 2.6961542826 0 0 2.9989005437 
0 3.0838665781 0 3.0627657293 0 0 2.9531960784 0 2.8975910474 
0 2.9247132817 2.8663937168 0 2.807292285 0 0 0 2.6497560829 
0 2.6519171619 0 0 0 2.6167370653 2.6110967145 0 0 
0 0 0 0 2.5047657087 0 2.4464607664 1.2462941217 2.2198316032 
1.994022488 0.8723156884 1.9374394759 1.900823897 1.9342977408 1.2658670874 1.9454386629 1.5824340642 1.8643865096 
1.894444327 2.0396028653 0 0 0 0 0 0 0 
0 0 0 0 0 0 0 0 0 
0 0 0 0 0 0 0 0 0 
0 0 0 0 0 0 0 0 1.5043480287 
0 1.9775057553 0 2.2613251096 0 0 2.8629778052 0 0 
0 3.0726833592 0 3.0276083553 0 0 0 0 2.6794408414 
0 2.6523840037 2.6204036979 2.6292985196 0 2.6456145694 0 2.6389251411 0 
2.5951963353 0 0 2.4725538129 0 0 2.2285784434 1.2243590297 2.1334030426 
1.094416459 2.1098506508 1.0580107121 1.0093782085 1.9950695598 1.2427827111 1.5177141509 1.8320334863 2.0232740165 
1.9426510854 1.9926905322 2.1020639368 2.0308801874 0 0 0 0 0 
0 0 0 0 0 0 0 0 0 
0 0 0 0 0 0 0 0 0 
0 0 0 0 0 0 0 0 0 
0 0 0 0 0 0 1.7905091907 0 2.0813565635 
2.4526139213 0 2.6647112608 0 2.8931826811 2.9610152916 0 3.0047612419 0 
0 3.0251803921 0 0 3.0066359781 2.9839939575 0 0 2.9500484035 
0 2.8982702512 2.776749896 0 2.7369592952 0 0 2.7225393751 0 
0 0 0 0 2.5953041457 2.5390809362 2.3651955901 1.3248142532 1.3179660044 
2.0410537158 2.1250891729 1.1132713773 2.0373041278 1.6291097025 2.0320083587 1.7625461157 2.0238905435 2.0603062176 
2.0866305234 0 0 0 0 0 0 0 0 
0 0 0 0 0 0 0 0 0 
0 0 0 0 0 0 0 0 0 
0 0 0 0 0 0 0 1.3307050982 0 
0 0 2.7694152266 0 0 0 2.9285282204 0 0 
2.9892048265 0 0 3.0216560661 0 0 0 0 0 
2.7034159263 2.6662361571 0 0 2.6389962053 2.6618567089 2.6803004861 0 2.6674451646 
0 0 2.5911620505 0 2.515477764 1.2585975101 2.3720932627 2.2636597652 1.3233462673 
1.2336727041 2.2426856146 1.2611904239 1.3213020695 2.1161714734 1.5961403101 2.1049871217 2.0874899246 2.0579720483 
2.1274067053 2.1068044635 0 0 0 0 0 0 0 
0 0 0 0 0 0 0 0 0 
0 0 0 0 0 0 0 0 0 
0 0 0 0 0 0 0 0 1.6533914982 
0 2.0108962809 0 2.2764727087 0 2.4842874573 0 2.6201590535 2.8083865574 
0 2.8779546155 0 2.9136730906 0 2.9799465967 0 3.0231827669 0 
3.0166239384 2.9184885283 0 0 2.8435297285 0 2.7973738574 2.75075884 0 
0 2.654014309 0 0 0 0 2.669362769 2.6214349015 0 
0 2.516609262 1.2947035976 1.3495938101 2.4127168834 1.4398307127 2.1844895904 1.4467959483 1.6088486619 
2.1982198386 1.8893093394 1.9710401905 2.0910592214 2.0673769098 0 0 0 0 
0 0 0 0 0 0 0 0 0 
0 0 0 0 0 0 0 0 0 
0 0 0 0 0 0 1.2136915516 1.5357557898 0 
0 0 2.4347775403 0 0 2.6800213843 0 2.7958603263 2.8069914132 
0 2.8820956117 0 0 3.0300604981 0 0 0 0 
0 2.7099433999 2.6705166515 0 0 2.6639572903 2.6857852809 2.7063643357 2.670530498 
2.6266596503 1.1902429289 2.5355352368 2.3914086856 1.4789750985 2.2943978692 1.6555979768 2.2704690777 1.7990695968 
1.8394186059 2.1302289669 2.1652582157 2.0743997888 2.0455316096 2.0886903622 2.1216035992 0 0 
0 0 0 0 0 0 0 0 0 
0 0 0 0 0 0 0 0 0 
0 0 0 0 0 0 0 0 0 
0 1.8998412886 2.2031586368 2.3912816591 0 2.5467262974 0 0 0 
2.7562288393 0 0 2.8039923693 0 2.8236752052 0 2.9270468201 0 
0 2.9073405548 2.9113847719 0 2.8588369138 2.8357486301 0 0 2.7237800646 
0 0 2.6530753843 0 0 0 0 2.7161160505 0 
2.6885430692 0 1.1477371869 2.644387483 1.3031844578 1.4435310522 1.5245022945 1.7387432805 2.3557365419 
1.7499553216 1.9313834634 2.2837681639 1.9902463527 2.2170320276 2.0473845569 2.0318730045 2.0140217855 2.0257997521 
2.1036480841 0 0 0 0 0 0 0 0 
0 0 0 0 0 0 0 0 0 
0 0 0 0 0 0 0 0 0 
0 0 0 0 0 1.0257267285 1.4099159856 0 1.7854982844 
0 0 2.5033633845 2.5892723399 2.6713153075 0 2.6786455969 0 2.714454837 
0 2.7158717149 0 2.7381524718 0 2.7980739235 0 0 2.7590891359 
2.669479592 0 2.6365326372 0 2.6506105928 0 2.6817118843 0 2.7180057783 
0 0 2.7269425027 2.7063247244 1.2103775811 2.5140725783 2.5325152099 2.4535011954 1.8045040152 
1.88439203 2.4352459761 2.3550231281 1.8636069893 1.8847716989 2.1361029814 2.2121574567 2.022079977 1.9606240122 
2.0582209738 0 0 0 0 0 0 0 0 
0 0 0 0 0 0 0 0 0 
0 0 0 0 0 0 0 0 0 
0 0 1.4455910816 0 2.1258406209 2.3720468916 0 2.5166601139 2.5571102673 
0 0 2.6103319135 0 0 2.6259599135 2.6917372684 0 0 
0 2.7206167809 2.70344356 2.7068716234 0 0 2.6231827618 0 0 
2.6242534103 0 2.7356588861 2.7338955581 0 1.1115079124 2.7063281471 1.2070924966 2.6203556068 
1.3378137812 2.6032390852 1.5565324335 1.7569209528 2.5121157778 1.9224212589 2.4118578112 2.3239117177 1.9318134251 
1.9783719366 1.9448637786 1.9906181007 2.1194119504 0 0 0 0 0 
0 0 0 0 0 0 0 0 0 
0 0 0 0 0 0 0 0 0 
0 0 0 0 0 1.7808978025 0 2.080565937 0 
2.3416904357 0 0 2.5762314648 0 2.6045452529 2.6169152923 2.6077106978 0 
0 0 2.5176851776 0 2.6141205213 0 0 0 2.6358524765 
0 0 0 2.5995960167 0 2.5898609744 0 2.6083229728 2.6452006151 
0 2.6960907748 0 0 2.7580740684 2.7578528903 0 2.7457029348 2.7583825124 
0.9738741732 2.6430339816 2.0161794396 2.0014851256 2.5899452081 1.9946200427 2.4974808018 1.9320249918 1.9138538733 
1.8991269215 2.2014685746 1.9788390632 2.069476416 0 0 0 0 0 
0 0 0 0 0 0 0 0 0 
0 0 0 0 0 0 0 0 0 
0 0 0 0 0 0 0 1.6140575598 1.8557189727 
0 0 2.5223140729 0 2.5934043888 2.5836023098 0 0 2.5413801564 
2.5635313338 0 0 0 0 2.4636984053 0 2.473272226 0 
0 2.4532923684 0 2.4748952699 0 0 2.4738938276 2.4805756158 2.5158044516 
0 0 0 2.7322038103 2.757643006 1.1910466474 2.7303295799 2.6776078923 1.3252033643 
1.5180496792 2.7009989048 2.6759557534 1.8443768256 2.0434241207 2.6254109055 2.5325603531 2.4267118179 2.3051335921 
1.9089921768 1.9220412379 2.1626735481 1.9532692697 1.9509567201 1.9749588382 2.0205988317 0 0 
0 0 0 0 0 0 0 0 0 
0 0 0 0 0 0 0 0 0 
0 0 0 0 0 0 0 0 0 
0 2.1218689802 2.3217545542 2.4936820242 0 2.5606936176 0 2.4925621269 0 
2.4970665946 2.5069639505 0 2.4623483427 2.3064733658 2.3686543366 0 0 0 
0 2.5007531792 2.5536024773 0 2.5989911279 2.6453587849 0 2.6978652747 2.754729849 
0 2.7728172903 0 2.7633139358 2.7622084134 0.92679168133 1.1331925405 1.3546152049 1.7006714268 
2.7952857901 2.7359727127 2.0607969549 2.103158818 1.9741724353 1.9649545859 2.3743794267 1.9299118324 2.2630369356 
1.9325751449 0 0 0 0 0 0 0 0 
0 0 0 0 0 0 0 0 0 
0 0 0 0 0 0 0 0 0 
0 0 0 0 1.6516780102 1.9305807754 2.169694138 0 0 
0 2.5971740641 2.6175438109 2.5944980199 0 0 0 2.3344332279 0 
2.3178861351 0 0 2.1565888958 2.1968693799 0 0 2.216558518 0 
2.2466764369 2.3131341356 2.3841129221 0 0 0 0 2.7743923321 1.1216967374 
2.7634727975 2.7916828035 1.5092992098 1.9092707755 2.7411875378 2.6323243702 2.0522387845 2.0036302122 2.5144218036 
1.9271994016 1.9147482886 2.0366287166 2.0993715882 2.1153289495 1.9176796666 1.9578244288 0 0 
0 0 0 0 0 0 0 0 0 
0 0 0 0 0 0 0 0 0 
0 0 0 0 0 0 0 0 0 
0 0 2.363410211 2.4851187996 2.5907822292 0 0 2.5302322075 2.4788928978 
0 2.4294821635 2.4151477181 0 2.3373280554 0 2.1512941763 0 0 
2.1556653318 0 2.2364545037 2.3657384269 0 2.4775611119 0 2.5776309521 2.6548079149 
0 2.718263711 2.7659419844 0 2.771809124 0 2.7708217564 2.7728815257 0.99506124585 
1.3222023119 2.843741313 2.8547110639 1.7434159048 2.8339976479 2.0226333005 2.0680345048 2.4459512566 2.3358900302 
1.9613720782 1.9590232386 2.2148603688 1.914832366 0 0 0 0 0 
0 0 0 0 0 0 0 0 0 
0 0 0 0 0 0 0 0 0 
0 0 0 0 0 0 1.7859126543 0 2.2074805594 
2.3864615511 0 0 2.5803280114 0 2.6176137606 2.5816772468 0 2.5167429741 
0 2.4257961712 2.3844184721 0 2.3405490023 0 2.2202748166 0 2.0336947865 
0 2.0217096431 0 2.0440151405 0 0 0 2.3599180037 0 
2.5009724956 2.6113631305 0 0 0 2.7963640057 2.8219349897 1.3576309855 1.5196717837 
1.6676303126 1.8842227311 2.8133965249 2.7373023375 2.6355789396 1.9773780098 2.5551159042 2.445303866 1.9615792181 
1.9452790288 2.1858979359 2.3292925894 1.9292601179 1.9077554319 2.0004907614 2.1181067862 1.9026191371 0 
0 0 0 0 0 0 0 0 0 
0 0 0 0 0 0 0 0 0 
0 0 0 0 0 0 0 0 0 
1.4004342496 0 2.5155085137 2.6122330194 0 0 0 2.2359374435 2.219149806 
0 2.1071637338 0 2.0250470738 0 1.9319285943 0 0 2.0298749213 
0 2.0860555232 0 2.1992668875 0 0 0 2.6805469524 0 
2.7446914298 2.7856170308 2.8008857001 2.7967670939 0 1.1050314469 2.8112398644 1.2437479462 2.8489807538 
2.8621998004 1.5470212563 2.8517323136 1.7342739965 1.8822974118 1.9514395747 2.7084332176 2.6253919744 1.9564011433 
2.5322403285 1.9175952474 2.2684955457 1.9405304048 2.1630934996 1.8714437324 1.9274569848 2.0503444359 0 
0 0 0 0 0 0 0 0 0 
0 0 0 0 0 0 0 0 0 
0 0 0 0 0 0 1.9175147962 2.3068733093 2.492190345 
0 0 2.587226351 0 2.5729405562 0 2.487072279 2.3940995703 0 
2.322223859 0 2.2890953114 0 0 2.0920463452 2.022879166 0 1.925262256 
0 1.9180400849 0 1.9420197376 0 1.9799653507 0 2.0349908956 0 
2.2031460794 0 2.3603899555 0 2.5058825394 2.5611525388 0 2.6707527015 0 
2.7550522925 0 2.7824629663 0 2.7880522399 2.7819412531 2.8094291907 2.7865772503 2.7352536267 
2.0087140303 1.954243228 1.88833666 2.4535376024 1.8929912876 2.3836106886 1.9274207127 1.9209526437 1.873821171 
0 0 0 0 0 0 0 0 0 
0 0 0 0 0 0 0 0 0 
0 0 0 0 0 0 0 0 0 
0 0 1.554534838 0 2.5428213377 2.5570749012 2.5388639443 0 2.4636021175 
0 2.3629437261 2.2863022865 2.2223097781 0 2.1771036571 0 2.0796162675 0 
1.9751690947 0 1.8960479357 0 1.8769800668 0 0 1.8960090569 0 
0 0 0 2.0682511787 0 0 2.3403253541 0 2.6570199233 
0 0.99884613964 2.784416527 1.2845379623 1.4863327964 2.8134347716 1.628905395 1.7768649354 1.9539581068 
2.635073888 2.5564274772 2.0215119912 2.4976367938 1.9116455796 1.902421225 2.2559543022 1.9551317486 2.1245153522 
1.8964603774 1.9775841846 1.8230924321 1.8537331929 0 0 0 0 0 
0 0 0 0 0 0 0 0 0 
0 0 0 0 0 0 0 0 0 
0 0 0 0 0 1.8961068719 2.4373059027 0 0 
0 0 0 0 1.9484315023 0 0 1.8700082962 0 
1.9350704742 1.9519932609 1.9752008286 2.1856013681 1.7803349743 2.3870424529 2.505456784 0 0 
2.6572492846 2.6576123338 2.700354953 2.713224302 2.7259104175 2.7111713541 1.9118083471 2.6610114516 1.992701661 
2.6232114932 2.0550767888 2.1022716389 2.5278323473 2.460948225 2.4458518371 1.8981211237 2.352142565 1.9474467087 
1.9685603635 1.8474005199 0 0 0 0 0 0 0 
0 0 0 0 0 0 0 0 0 
0 0 0 0 0 0 0 0 0 
0 0 0 0 0 0 0 1.5250818467 2.1416128534 
0 2.3171350191 2.4276440333 0 2.4096910234 2.3700017035 2.2898294636 2.23190452 2.1782581584 
0 2.1167663327 0 2.0461509314 1.9574005875 0 1.8536107308 1.8227100681 0 
0 1.9008736382 1.9246667756 1.7276163514 1.9293255259 2.2552567717 1.9302991262 2.5046053448 1.9938246818 
2.435534084 2.1012000358 2.220755867 2.2141420115 1.607527087 2.4414261702 2.4210457765 1.4915559016 2.5328128997 
1.3968403672 2.6129358403 1.3973140702 2.6128541374 1.5446206123 1.7871042959 2.6535385829 2.6196072725 2.5479968679 
2.5349733543 2.1786507059 2.1616049459 2.4174432788 2.0053462511 2.3762764561 1.9738206824 1.997297902 2.2232415833 
2.0103066027 2.0737837272 1.9577551326 1.8996241306 1.832619244 0 0 0 0 
0 0 0 0 0 0 0 0 0 
0 0 0 0 0 0 0 0 0 
0 0 0 0 1.4402680098 1.7364179026 1.9876695079 0 2.229699948 
0 0 2.1133524916 2.1029470862 0 2.0811836412 2.0526674419 2.0078475622 0 
1.9345801512 1.8592481225 0 1.7717792147 0 1.8555083691 1.8866712152 1.755758253 1.8761412496 
1.8713321694 1.8824063323 1.912785911 1.9923587498 2.0934538017 2.2387412357 2.1511217862 1.6890754617 2.3650874983 
2.4342464227 2.5727555672 2.5545884274 2.2408697907 2.3031786938 2.4779323577 2.3300150912 2.2749973177 2.4381135647 
2.3692481418 2.347900207 2.1986662931 2.2998929995 2.0566644149 2.0528231423 1.9966913179 1.9235515855 0 
0 0 0 0 0 0 0 0 0 
0 0 0 0 0 0 0 0 0 
0 0 0 0 0 0 0 0 0 
0 0 0 0 0 2.0595098095 0 2.1377964083 1.8830044534 
0 1.8569409982 1.8476653742 0 1.8681445672 1.9072949679 0 1.8316767066 0 
0 0 1.6869252406 1.7515355275 0 0 0 0 0 
1.7040022397 2.0446653126 0 0 0 0 2.38171038 0 2.5063598281 
1.7844763783 2.828385325 2.7214859527 2.6563301612 1.7186271148 2.5525354622 1.7627369869 2.1551352258 1.8982010061 
2.090945074 2.0459668454 2.0032579959 1.9899051572 2.2198274112 1.8520133546 2.4206189933 2.143907664 1.8434090891 
2.5309309364 2.3269437226 1.947991324 2.4080697289 2.1026797231 2.4822384986 2.4354017165 2.398172953 2.3393413106 
2.369166349 2.3057905486 2.1802936982 2.1791574557 2.1352324311 2.0888415193 2.1322768521 1.9422489317 2.0489878962 
1.924535843 0 0 0 0 0 0 0 0 
0 0 0 0 0 0 0 0 0 
0 0 0 0 0 0 0 0 0 
0 0 0 0 0 0 0 0 0 
0 1.6867940019 0 2.0074270523 1.7708245742 0 1.5698740076 0 0 
1.5377966259 0 0 0 0 0 0 0 0 
0 0 0 0 0 0 1.610625781 0 0 
1.3648938796 0 0 0 0 1.759778016 0 0 0 
0 0 0 0 0 0 1.7819739336 1.7368288119 1.5218436016 
2.5651163668 1.5392498499 1.745735015 1.7908826654 2.3758267611 1.8752085582 2.2121780441 1.9356563835 2.0097486125 
2.2249938769 2.286457897 2.4664369343 2.5646014664 2.595658677 2.3567937197 2.5885241572 2.3409171398 2.5691546538 