# vtk DataFile Version 5.1
vtk output
ASCII
DATASET POLYDATA
POINTS 19999 double
-19.671251824 -15.285879574 30.884688438 -21.759666972 -21.131567574 34.852118871 -21.758868258 -20.129105376 35.390828031 
-21.942828786 -21.881209275 34.107120903 -22.260573938 -22.046871331 35.053278352 -21.412967859 -20.322352884 34.426441301 
-21.378876557 -19.447365994 34.715192199 -21.03648029 -18.778927121 34.207817035 -21.025570717 -17.911391438 34.802276859 
-20.585406804 -17.073241204 34.297423764 -20.929954587 -16.810635536 35.264296349 -20.508170048 -16.002539134 34.596360156 
-21.47080298 -20.956452074 33.780755726 -20.691578281 -17.920858636 33.731337357 -20.264988164 -15.413935357 33.743736188 
-21.152178755 -19.775134146 33.612960015 -20.31552346 -16.412000846 33.655207182 -21.775111801 -21.646208222 33.149439492 
-22.338305908 -22.3600337 33.096518883 -20.863756931 -18.741516025 33.193588046 -20.463399271 -17.222751066 33.053640667 
-21.391594349 -20.741025517 32.831481941 -20.200823153 -16.160633364 32.755195339 -20.041360247 -15.167285903 32.731888623 
-20.294848376 -14.429181765 33.673463517 -21.11730358 -19.76720985 32.611267103 -20.619264976 -17.85430944 32.353980108 
-19.884958252 -14.187690356 32.673476628 -19.775298638 -13.243898749 32.766710354 -21.892832341 -21.628388647 32.145633483 
-20.866589845 -18.807702996 32.299018569 -20.315401683 -16.790159455 32.022664914 -19.513174702 -12.52089389 32.294806844 
-21.387507483 -20.560219564 31.869798711 -21.046421334 -19.466315306 31.62189654 -19.907215887 -15.675461037 31.825053935 
-19.703467238 -14.577986851 31.720785516 -19.518600046 -13.473600901 31.689829561 -19.549109614 -11.564823476 32.405241702 
-21.852942443 -21.103798255 31.1557421 -20.749686144 -18.353295627 31.416963646 -20.483332304 -17.37475259 31.232746572 
-19.284847136 -12.301824041 31.397665227 -19.245311441 -11.222786076 31.406275699 -21.329939416 -20.077069547 30.910131255 
-20.07962016 -16.363615089 31.04670733 -19.610263409 -14.106112691 30.756742875 -20.950782391 -19.009173929 30.66831136 
-20.684957533 -17.96482282 30.396232796 -19.445940763 -12.97974254 30.632613216 -19.333087562 -11.734145751 30.492421038 
-21.83196184 -20.561402997 30.183890315 -20.424324792 -16.997191334 30.175092631 -20.028308482 -15.978983265 30.083825447 
-21.310855193 -19.558430157 29.931589764 -20.985319089 -18.509341188 29.65369867 -19.818710056 -14.848801865 29.938623073 
-19.768701785 -13.666018031 29.80608181 -19.678182208 -12.46732445 29.722696146 -20.864951943 -17.505951014 29.303885177 
-21.425588566 -19.017605793 28.997626131 -20.604278593 -16.567309899 29.218320264 -20.285996988 -15.500624398 29.195446196 
-20.177633037 -14.385660859 29.040001756 -16.5336566 -0.8802115163 26.432931276 -16.682976548 -1.8019099799 25.820849547 
-17.066593635 -1.6257604764 26.730177798 -16.307443424 0.068758813023 26.276767683 -16.248604758 -0.7930928682 25.459198992 
-15.983461152 0.91130023379 25.6169688 -16.905429713 -2.5043999019 25.026520464 -17.430674367 -2.6530984869 25.929163684 
-15.998814104 0.13486535546 25.072118529 -15.960601768 1.8944039978 25.540801884 -16.470028057 -1.6861773733 24.737170259 
-15.737401234 1.2132939771 24.612549346 -15.676622597 2.3029225349 24.698561246 -16.203708466 -0.76841920952 24.393098868 
-17.012303806 -2.6837645203 24.003402311 -15.947422686 0.22808359088 24.040620091 -15.680535567 3.1560685833 24.154456616 
-16.532678 -1.7953043221 23.696750938 -15.716633147 1.1613656928 23.572360352 -15.556909736 2.1129695965 23.722214535 
-16.232479254 -0.70947814653 23.388622629 -17.281766624 -2.4292549205 22.96356526 -15.965591145 0.36191819766 23.03441158 
-15.633540085 2.8542982488 23.046672646 -16.664188474 -1.4663769983 22.718306591 -15.700126166 1.6209014382 22.683281447 
-16.395815089 -0.32603989259 22.371392126 -16.084584703 0.74940955511 22.15344382 -15.811624143 2.3739136305 22.101044196 
-16.128854967 1.5119342865 21.543256813 -21.792727115 -17.625048454 38.28861057 -21.605865061 -18.147893312 37.345176512 
-22.115768704 -18.663427561 38.100983402 -21.450687371 -17.087418491 37.472829727 -22.061073101 -19.284249145 37.180823141 
-22.514992399 -21.400609565 36.743451033 -23.084970197 -22.308119261 37.124052519 -22.440330496 -20.369033551 37.202791747 
-21.547914585 -18.484466196 36.438863783 -21.275043076 -17.323991086 36.592444226 -21.524065826 -16.076814846 37.126915924 
-21.158256537 -16.393471526 36.190190602 -22.593151241 -22.196738594 36.059411662 -23.170764838 -22.97088943 36.339999923 
-22.093188397 -20.43977432 36.328909049 -21.813793418 -19.486033859 36.199188554 -22.145669636 -21.238380496 35.766646868 
-21.255235412 -17.705310591 35.726081912 -22.796051426 -22.912571338 35.194660501 -23.46159048 -23.546446102 35.682081203 
-21.47776967 -18.774353003 35.401556283 -20.926258865 -15.642320067 35.442660012 -21.120077835 -14.54873991 35.482793002 
-23.437734213 -23.642922768 34.724798897 -20.593405099 -14.88886304 34.656152792 -22.600863285 -22.730301426 34.134280804 
-20.676579326 -13.804694281 34.620228922 -23.284297599 -23.491633303 33.873140529 -20.539785291 -12.64307328 34.183187123 
-20.209581007 -13.440815204 33.636923569 -22.94270094 -23.149045727 33.034446135 -20.009405741 -12.249456759 33.285471989 
-19.972702711 -11.082544483 33.262457698 -19.53146044 -10.494262798 32.384631748 -19.995999957 -9.945040021 33.158621516 
-23.237468248 -23.592107489 32.150928378 -22.568960456 -22.624401443 32.125742013 -19.695825877 -9.349884033 32.163452676 
-22.962769058 -23.059653911 31.239140926 -22.399040423 -22.056890175 31.225168494 -19.333614157 -10.201366225 31.427097831 
-19.459366255 -9.3432384425 30.945848223 -19.353412401 -10.48506184 30.37643901 -22.896065679 -22.493781206 30.331750496 
-22.316362472 -21.513574036 30.258857342 -19.48413915 -9.4047328236 29.847661463 -22.631065185 -21.97728496 29.372263963 
-19.586734896 -11.300389866 29.608252798 -22.182397006 -21.027210537 29.245331547 -21.820394517 -20.079895656 29.209391366 
-20.059121238 -13.202984203 28.934314906 -19.602219306 -10.239886413 29.227784026 -21.293645009 -17.986768844 28.586262015 
-19.910128481 -12.073256547 28.755820059 -19.820447851 -11.055838501 28.637179356 -23.639004284 -25.385762962 28.538068234 
-23.230230029 -24.437421411 28.518720629 -23.709318224 -24.913211286 29.432904756 -23.462258902 -23.914369294 29.421848785 
-23.015291471 -23.474324725 28.469741195 -22.700892042 -22.495326787 28.421762618 -23.163729076 -22.905729532 29.39513583 
-22.366545138 -21.53450421 28.354419703 -22.147828358 -20.517243231 28.192745131 -21.850158271 -19.622369329 28.292073917 
-21.183556208 -16.939795985 28.203822576 -20.837201837 -15.987393444 28.457854147 -20.73020054 -14.999941902 28.271789512 
-21.659376911 -18.741686441 27.999352349 -20.464610854 -13.847368798 28.169954758 -20.260937625 -12.688055567 27.980455424 
-23.331821376 -25.077997268 27.669373559 -22.991964775 -24.136786084 27.499605637 -22.721210706 -23.075280542 27.514781528 
-21.609093478 -17.725968635 27.590516069 -20.124051779 -11.443093582 27.759414325 -24.10794074 -26.019684697 27.68970339 
-22.45467034 -22.019751312 27.37802527 -22.333610286 -20.953519021 27.342574743 -22.204846238 -19.689219696 27.298502684 
-21.24652418 -15.863884307 27.565061409 -20.9861686 -14.476335041 27.490100931 -20.727722839 -13.383953464 27.246992151 
-23.686297639 -25.585380338 26.946274707 -21.995510856 -18.648135694 27.123775789 -21.626473247 -16.792646679 27.071770673 
-17.642713422 -1.2741725629 27.616294057 -16.985896825 -0.53852677233 27.287949359 -16.869475687 0.43493023135 27.246226513 
-23.181730507 -24.736471585 26.581314379 -22.814021845 -23.533231756 26.606617423 -22.542952966 -22.479349953 26.476662824 
-22.319697061 -21.298972567 26.384337008 -22.365100621 -20.232745683 26.524725174 -17.74394994 -2.1254573237 26.96305173 
-16.411528585 1.0998422267 26.479726689 -16.905945159 1.5373607898 27.249551261 -16.419819092 2.1267859676 26.382905358 
-23.771740774 -25.520088816 25.968285731 -22.954704991 -23.96174114 25.824336234 -18.284853243 -2.8196625613 26.374111951 
-16.498470271 3.1005872128 26.4244994 -23.359877584 -24.743009387 25.418489201 -22.660269275 -22.92822063 25.477611084 
-22.399838529 -21.908016027 25.578532216 -22.242289469 -20.871104628 25.317788624 -22.356177511 -19.838606059 25.733795545 
-16.035634155 2.9877298389 25.433410834 -18.49222654 -3.2215383269 25.521183501 -17.652598929 -3.1655140705 24.847480664 
-16.365521799 3.9108863819 25.945497424 -22.962329781 -23.757128483 24.826211902 -22.342746922 -19.877616289 24.781767859 
-19.60779446 -9.5459634388 24.980417458 -19.809243385 -10.560778379 25.032381155 -15.916084525 3.8888842202 24.831058825 
-23.512692236 -24.497603908 24.431896926 -22.63708269 -22.82899502 24.364355939 -22.389060095 -21.872953435 24.625290904 
-20.236572719 -11.702482924 24.963492234 -19.833913181 -11.201078956 24.237333437 -22.262962535 -20.876180581 24.202654486 
-19.690699718 -10.20108527 24.039771952 -15.979093406 4.8001808712 24.387722465 -23.01302154 -23.702339539 23.791525024 
-22.344969801 -21.724557232 23.59854945 -22.40580503 -19.939090857 23.806602721 -20.301983159 -11.980698102 23.801027053 
-17.978149356 -3.0621955606 23.724594596 -15.720470698 4.0132221073 23.556361466 -22.574887565 -22.715970953 23.333105131 
-22.336350125 -20.625115045 23.088071454 -20.048079101 -10.940466435 23.306312696 -15.920117281 5.0907519648 23.507662941 
-23.706797862 -24.436075888 23.399492498 -23.026311984 -23.597142743 22.847474447 -22.307245697 -21.763500807 22.620203514 
-18.347809799 -2.5657457426 22.97989331 -15.763505647 3.6791659753 22.498138559 -15.857950235 4.6864887272 22.565261962 
-22.557513504 -22.711300371 22.313793448 -22.308344767 -20.895196539 22.141037527 -23.140366424 -23.412823139 21.824368286 
-17.366051597 -1.8169932727 22.045019173 -16.88494078 -0.88064530814 21.75804206 -15.899102666 3.1821121057 21.633482631 
[...]
POINT_DATA 19999
SCALARS thickness%20(mm) double
LOOKUP_TABLE default
0 0 0 0 0 0 0 0 0 
0 0 0 0 0 0 0 0 0 
0 0 0 0 0 0 0 0 0 
0 0 0 0 0 0 0 0 0 
0 0 0 0 0 0 0 0 0 
0 0 0 0 0 0 0 0 0 
0 0 0 0 0 0 0 0 0 
0 0 0 0 0 0 0 0 0 
0 0 0 0 0 0 0 0 0 
0 0 0 0 0 0 0 0 0 
0 0 0 0 0 0 0 0 0 
0 0 0 0 0 0 0 0 0 
0 0 0 0 0 0 0 0 0 
0 0 0 0 0 0 0 0 0 
0 0 0 0 0 0 0 0 0 
0 0 0 0 0 0 0 0 0 
0 0 0 0 0 0 0 0 0 
0 0 0 0 0 0 0 0 0 
0 0 0 0 0 0 0 0 0 
0 0 0 0 0 0 0 0 0 
0 0 0 0 0 0 0 0 0 
0 0 0 0 0 0 0 0 0 
0 0 0 0 0 0 0 0 0 
0 0 0 0 0 0 0 0 0 
0 0 0 0 0 0 0 0 0 
0 0 0 0 0 0 0 0 0 
0 0 0 0 0 0 0 0 0 
0 0 0 0 0 0 0 0 0 
0 0 0 0 0 0 0 0 0 
0 0 0 0 0 0 0 0 0 
0 0 0 0 0 0 0 0 0 
0 0 0 0 0 0 0 0 0 
0 0 0 0 0 0 0 0 0 
0 0 0 0 0 0 0 0 0 
0 0 0 0 0 0 0 0 0 
0 0 0 0 0 0 0 0 0 
0 0 0 0 0 0 0 0 0 
0 0 0 0 0 0 0 0 0 
0 0 0 0 0 0 0 0 0 
0 0 0 0 0 0 0 0 0 
0 0 0 0 0 0 0 0 0 
0 0 0 0 0 0 0 0 0 
0 0 0 0 0 0 0 0 0 
0 0 0 0 0 0 0 0 0 
0 0 0 0 0 0 0 0 0 
0 0 0 0 0 0 0 0 0 
0 0 0 0 0 0 0 0 0 
0 0 0 0 0 0 0 0 0 
0 0 0 0 0 0 0 0 0 
0 0 0 0 0 0 0 0 0 
0 0 0 0 0 0 0 0 0 
0 0 0 0 0 0 0 0 0 
0 0 0 0 0 0 0 0 0 
0 0 0 0 0 0 0 0 0 
0 0 0 0 0 0 0 0 0 
0 0 0 0 0 0 0 0 0 
0 0 0 0 0 0 0 0 0 
0 0 0 0 0 0 0 0 0 
0 0 0 0 0 0 0 0 0 
0 0 0 0 0 0 0 0 0 
0 0 0 0 0 0 0 0 0 
0 0 0 0 0 0 0 0 0 
0 0 0 0 0 0 0 0 0 
0 0 0 0 0 0 0 0 0 
0 0 0 0 0 0 0 0 0 
0 0 0 0 0 0 0 0 0 
0 0 0 0 0 0 0 0 0 
0 0 0 0 0 0 0 0 0 
0 0 0 0 0 0 0 0 0 
0 0 0 0 0 0 0 0 0 
0 0 0 0 0 0 0 0 0 
0 0 0 0 0 0 0 0 0 
0 0 0 0 0 0 0 0 0 
0 0 0 0 0 0 0 0 0 
0 0 0 0 0 0 0 0 0 
0 0 0 0 0 0 0 0 0 
0 0 0 0 0 0 0 0 0 
0 0 0 0 0 0 0 0 0 
0 0 0 0 0 0 0 0 0 
0 0 0 0 0 0 0 0 0 
0 0 0 0 0 0 0 0 0 
0 0 0 0 0 0 0 0 0 
0 0 0 0 0 0 0 0 0 
0 0 0 0 0 0 0 0 0 
0 0 0 0 0 0 0 0 0 
0 0 0 0 0 0 0 0 0 
0 0 0 0 0 0 0 0 0 
0 0 0 0 0 0 0 0 0 
0 0 0 0 0 0 0 0 0 
0 0 0 0 0 0 0 0 0 
0 0 0 0 0 0 0 0 0 
0 0 0 0 0 0 0 0 0 
0 0 0 0 0 0 0 0 0 
0 0 0 0 0 0 0 0 0 
0 0 0 0 0 0 0 0 0 
0 0 0 0 0 0 0 0 0 
0 0 0 0 0 0 0 0 0 
0 0 0 0 0 0 0 0 0 
0 0 0 0 0 0 0 0 0 
0 0 0 0 0 0 0 0 0 
0 0 0 0 0 0 0 0 0 
0 0 0 0 0 0 0 0 0 
0 0 0 0 0 0 0 0 0 
0 0 0 0 0 0 0 0 0 
0 0 0 0 0 0 0 0 0 
0 0 0 0 0 0 0 0 0 
0 0 0 0 0 0 0 0 0 
0 0 0 0 0 0 0 0 0 
0 0 0 0 0 0 0 0 0 
0 0 0 0 0 0 0 0 0 
0 0 0 0 0 0 0 0 0 
0 0 0 0 0 0 0 0 0 
0 0 0 0 0 0 0 0 0 
0 0 0 0 0 0 0 0 0 
0 0 0 0 0 0 0 0 0 
0 0 0 0 0 0 0 0 0 
0 0 0 0 0 0 0 0 0 
0 0 0 0 0 0 0 0 0 
0 0 0 0 0 0 0 0 0 
0 0 0 0 0 0 0 0 0 
0 0 0 0 0 0 0 0 0 
0 0 0 0 0 0 0 0 0 
0 0 0 0 0 0 0 0 0 
0 0 0 0 0 0 0 0 0 
0 0 0 0 0 0 0 0 0 
0 0 0 0 0 0 0 0 0 
0 0 0 0 0 0 0 0 0 
0 0 0 0 0 0 0 0 0 
0 0 0 0 0 0 0 0 0 
0 0 0 0 0 0 0 0 0 
0 0 0 0 0 0 0 0 0 
0 0 0 0 0 0 0 0 0 
0 0 0 0 0 0 0 0 0 
0 0 0 0 0 0 0 0 0 
0 0 0 0 0 0 0 0 0 
0 0 0 0 0 0 0 0 0 
0 0 0 0 0 0 0 0 0 
0 0 0 0 0 0 0 0 0 
0 0 0 0 0 0 0 0 0 
0 0 0 0 0 0 0 0 0 
0 0 0 0 0 0 0 0 0 
0 0 0 0 0 0 0 0 0 
0 0 0 0 0 0 0 0 0 
0 0 0 0 0 0 0 0 0 
0 0 0 0 0 0 0 0 0 
0 0 0 0 0 0 0 0 0 
0 0 0 0 0 0 0 0 0 
0 0 0 0 0 0 0 0 0 
0 0 0 0 0 0 0 0 0 
0 0 0 0 0 0 0 0 0 
0 0 0 0 0 0 0 0 0 
0 0 0 0 0 0 0 0 0 
0 0 0 0 0 0 0 0 0 
0 0 0 0 0 0 0 0 0 
0 0 0 0 0 0 0 0 0 
0 0 0 0 0 0 0 0 0 
0 0 0 0 0 0 0 0 0 
0 0 0 0 0 0 0 0 0 
0 0 0 0 0 0 0 0 0 
0 0 0 0 0 0 0 0 0 
0 0 0 0 0 0 0 0 0 
0 0 0 0 0 0 0 0 0 
0 0 0 0 0 0 0 0 0 
0 0 0 0 0 0 0 0 0 
0 0 0 0 0 0 0 0 0 
0 0 0 0 0 0 0 0 0 
0 0 0 0 0 0 0 0 0 
0 0 0 0 0 0 0 0 0 
0 0 0 0 0 0 0 1.2987931711 0 
1.0108065323 0 0 0 0 0 0 0 0 
0 0 0 0 0.49018570209 0 0.81986473304 0 0.81012566157 
0 0.47503471977 0 0 0.30157226037 0 0 0 0 
0.57971370454 0 0 0 0 0 0 0 0 
0 0 0 0 0 0 0 0 0 
0 0 0 0 0 0 0 0 0 
0 0 0 0 0 0 0 0 0 
0 0 0 0 0 0 0 0 0 
0 0 0 0 0 0 0 0 0 
0 0 0 0 0 0 0 0 0 
0 0 0 0 0 0 0 0 0 
0 0 0 0 0 0 0 0 0 
0 0 0 0 0 0 0 0 0 
0 0 0 0 0 0 0 0 0 
0 0 0 0 0 0 0 0 0 
0 0 0 0 0 0 1.2370654718 0.9939893444 0 
1.4219918162 0 0 0 1.6427022575 1.3565888827 0 1.1015619693 0 
0 0 0 0.85205260833 0.95160941787 0 0.96503578316 0 0 
0.91420992431 0 1.0186330633 0 0.97469577011 0 0 0 0.90107304079 
1.2623894602 0 0.10021569058 0 0 0.31902805715 0 0 0 
0 0 0 0 0 0 0 0 0 
0 0 0 0 0 0 0 0 0 
0 0 0 0 0 0 0 0 0.43452388003 
0.50821692979 0 0 0 0 0 0 0 0.71050848203 
0.95612561743 0 0 0 0 0 0 0 0 
0 0 0 0 0 0 0 0 0 
0 0 0 0 0 0 0 0 0 
0 0 0 0 0 0 0 0 0 
0 0 0 0 0 0 0 0 0 
0 0 0 0 0 0 0 0 0 
0 0 0 0 0 0 0 0 0 
0 0 0 0 0 0 0 0 0 
0 0 0 0 0 0 0 0 0 
0 0 0 0 0 0 0 1.0527362278 0 
0 1.7926134763 0 1.7545996702 0 1.7750924668 0 0 0 
0 1.7973473245 0 0 0 0 1.3890817253 0 1.3398084482 
0 0 1.0401583932 0 0 0.96740508855 0 0 0 
0 1.3634870034 0 1.4083432709 0 0 0 0 1.4760481925 
0 0 1.1214493622 0 0 0 0 1.311143514 0 
0 0 0 0 1.2114600608 0 0 0 0 
0 0 0 1.1481561669 0 1.4047289146 0 0 0 
0 0 0 1.6090539216 0 0 0 1.2143231011 0 
1.589611765 0 0 1.4067549682 0 1.2615817676 0 0 0 
1.5820920403 0 0 0 0 0 0 0 0 
0 0 0 1.4439254224 0 1.1076647229 0 0 0 
0 0 0 0 0 0 0 0 1.1720330614 
0 0 0 0 0 0 0 0 0 
0 0 0 0 0 0 0 0 0 
0 0 0 0 0 0 0 0 0 
0 0 0 0 0 0 0 0 0 
0 0 0 0 0 0 0 0 0 
0 0 0 0 0 0 0 0 0 
0 0 0 0 0 0 0 0 0 
0 1.3209634036 0 0 1.7912501094 0 0 0 1.7911214561 
0 1.8130226678 0 0 0 0 2.0157514913 1.9540687566 0 
0 0 0 0 1.7139964054 0 0 1.7829823315 0 
0 1.7642245745 0 0 1.4971139046 0 1.5825636447 0 1.3340619404 
0 1.2769602715 0 1.1956890497 0 0 1.363809605 0 0 
0 0 1.652678638 1.5128904341 0 0 0 1.502210395 0 
0 1.8539430933 1.6465135618 0 0 0 1.838129098 0 0 
0 0 1.7928882379 0 0 1.8725666569 0 0 0 
0 1.6434062322 0 0 1.8101276093 0 0 0 1.9485661756 
0 0 0 0 0 0 0 1.8711820183 0 
1.7613068737 0 0 0 1.6799063312 0 1.3657087511 0 1.287822263 
0 0 0.9803106627 0 0 0 0.72830472196 1.2199784356 0 
0 0 0.0060757446308 0 0 0 0 0 0.037674795413 
0.36369866063 0 0 0.77920267224 0 0 0 0 0 
0 0 0 0 0 0 0 0 0 
0 0 0 0 0 0 0 0 0 
0 0 0 0 0 0 0 0 0 
0 0 0 0 0 0 0 0 0 
0 0 0 0 0 0 0 0 0 
0 0 0 0 0 0 0 0 1.9695303341 
1.9714749951 0 2.0107507808 0 2.0810541088 0 2.0124764607 0 1.9142619322 
0 1.9115841227 0 1.874786148 0 0 1.6888857941 0 1.6659273 
0 0 1.5379328899 0 1.3914393642 0 1.4651814128 0 1.6653252587 
1.6405535282 0 1.7304463114 0 0 0 1.9687340939 1.9185022536 0 
1.9244534225 0 0 0 2.122716672 0 0 0 2.2881484408 
0 0 0 0 0 0 2.2184172094 0 0 
0 0 2.2327058882 0 0 0 0 0 0 
0 0 0 1.7744499861 0 0 0 0 0 
0 0 0 0 1.9023403966 0 0 0 0 
1.9286466783 0 0 1.7536979444 0 1.5900154281 0 0 0 
1.1806237662 0 0 0 0 0 0 0.86063020844 0.72801454165 
0 0.62883015388 0.78034783109 0.61204307872 0 0.76262324215 0 0 0 
0 0 0 0 0 0 0 0 0 
0 0 0 0 0 0 0 0 0 
0 0 0 0 0 0 0 0 0 
0 0 0 0 0 0 0 0 0 
0 0 0 0 0 0 0 0 0 
0 0 0 0 0 0 0 0 0 
0 0 1.6347131645 0 1.949634462 0 0 1.9575578745 0 
1.9807185978 2.0740114715 0 0 2.0423318221 0 1.9722570569 0 0 
0 1.8689826457 1.7843427985 0 0 1.6541604205 0 0 0 
0 0 0 0 0 1.9135342492 0 0 2.0115709992 
0 0 0 2.1960147929 0 2.1749401779 0 2.1937403555 0 
0 0 0 2.3541280285 0 0 2.3778494257 0 0 
0 0 0 2.3244500132 0 0 0 0 2.1764024869 
0 2.0767351609 0 1.9950036584 0 1.9482153733 0 0 0 
0 0 0 2.015394583 0 0 0 0 0 
0 2.1300606225 0 0 0 2.3928171172 2.2811666196 0 0 
1.7249963243 2.1257252004 0 1.319977721 0 0.86841694271 0 0 0 
0 0.71421953735 0.96944978564 0.92766658715 0.93259822127 1.2632746293 1.1206028366 1.2987097272 0 
0.79653514237 0 0 0 0 0 0 0 0 
0 0 0 0 0 0 0 0 0 
0 0 0 0 0 0 0 0 0 
0 0 0 0 0 0 0 0 0 
0 0 0 0 0 0 0 0 0 
0 0 0 0 0 0 0 0 0 
0 0 0 0 1.7134191253 0 0 1.8997139509 0 
0 0 2.0487094413 0 0 1.9165136076 0 1.852809658 0 
1.8351466456 0 0 1.9013884122 1.7682217352 0 1.7726804601 0 0 
1.5613541841 0 1.5437337312 0 0 1.7947676071 0 1.982384651 0 
0 0 2.2140138656 2.2606273066 0 0 0 0 2.319971395 
0 0 2.2908137166 0 2.3679310332 0 0 2.4609662539 0 
2.4709867422 0 2.3891937752 0 2.1134984324 0 0 1.9940904373 0 
1.9058252062 0 0 1.9521338878 0 0 0 0 2.0211656154 
0 0 0 0 2.1197882549 2.3861515638 0 0 2.6050273123 
2.6357849626 0 0 0 1.6779837368 0 0 1.3971220112 1.6947874652 
0 1.5665976492 0 0.27689763526 0.9301149647 1.2375295604 1.4513726072 1.6229555749 1.5993068683 
1.654091226 1.7164404912 0 0 0 0 0 0 0 
0 0 0 0 0 0 0 0 0 
0 0 0 0 0 0 0 0 0 
0 0 0 0 0 0 0 0 0 
0 0 0 0 0 0 0 0 0 
0 0 0 0 0 0 0 0 0 
0 0 0 0 0 0 0 0 0 
0 0 1.6338396421 1.7969875006 0 1.9270478955 0 2.0136073309 0 
1.970988503 0 0 0 1.7857908508 0 1.8108134978 0 0 
1.994726028 0 2.0036180229 0 1.8475332356 0 1.8858177105 0 1.7266961291 
0 0 0 2.1784870635 0 2.1688244682 0 0 2.3704261153 
0 0 0 2.2453593945 0 0 2.2289031148 0 2.3353174747 
0 0 2.4708266327 0 2.3736414418 0 0 2.1549805547 0 
0 1.9197189892 0 0 0 0 0 0 0 
1.8380171096 1.8631559046 0 1.9642412525 2.3134186373 0 2.4642611012 0 2.4313235256 
0 2.0550013779 0 1.7915083704 0 0 1.7281185832 1.7123779363 0 
0 0.31986612127 1.6426597778 2.3296975484 2.2366437735 0 0 0 0 
0 0 0 0 0 0 0 0 0 
0 0 0 0 0 0 0 0 0 
0 0 0 0 0 0 0 0 0 
0 0 0 0 0 0 0 0 0 
0 0 0 0 0 0 0 0 0 
0 0 0 0 0 0 0 0 0 
0.46707093299 0 1.2686366538 0 0 1.784629859 0 1.9056502726 0 
1.9490425887 0 0 1.8695440334 1.7937271023 0 1.8616702603 0 0 
1.9435834244 0 0 0 2.1493540078 0 0 2.0456476337 0 
2.0920349573 0 0 0 2.219381157 0 2.2531385313 2.28337427 0 
0 2.3908070432 0 2.3525189746 0 0 2.3319849924 0 0 
0 0 0 0 2.4638824552 0 0 0 2.2867369692 
0 2.2368657049 0 0 2.0176848417 0 0 1.9297669235 0 
0 0 0 0 2.0333874747 0 2.1563895754 2.5550319101 2.551274244 
0 0 2.0829384193 1.8365462573 0 1.5129262898 0 0 0 
0 0 2.2874038864 2.6152534508 2.4477788246 2.5382663556 2.152456158 1.9023618509 0.26595685474 
1.2736732956 1.4483473287 2.2577066773 0 0 0 0 0 0 
0 0 0 0 0 0 0 0 0 
0 0 0 0 0 0 0 0 0 
0 0 0 0 0 0 0 0 0 
0 0 0 0 0 0 0 0 0 
0 0 0 0 0 0 0 0 0 
0 0 0 0 0 0 0 0 0 
0 0 0 1.1593793822 0 0 1.6407080139 0 1.7222245146 
0 0 1.9133518407 0 1.9929213791 1.9236592658 0 0 0 
1.9167147835 1.8839507648 2.0636902151 0 0 2.1942093023 0 2.2256409441 0 
2.2148764154 0 0 2.2864531832 0 2.2951165633 0 0 0 
0 2.2991782227 2.3402343019 0 0 2.3479809834 0 2.3864626976 0 
0 2.5040074639 0 0 2.5092768681 0 2.6096325727 0 2.6696190928 
2.4981010456 0 2.4460772421 0 2.4079516804 0 2.2900690833 0 2.1450117073 
1.967555665 1.801871041 0 1.7338641375 0 2.1032336025 0 2.0722934682 2.0488373082 
0 1.6049938843 1.2245124595 0 1.3711537483 0 1.7677774161 1.5163602516 2.5422692475 
2.7211609771 2.6602203343 2.461280617 2.2894927427 1.1868730638 1.3421012008 2.0977947129 2.1699519541 0 
0 0 0 0 0 0 0 0 0 
0 0 0 0 0 0 0 0 0 
0 0 0 0 0 0 0 0 0 
0 0 0 0 0 0 0 0 0 
0 0 0 0 0 0 0 0 0 
0 0 0 0 0 0 0 0 0 
0 0 0 0 0 0 0 0 1.6946902304 
0 2.1335518679 0 0 2.1768801902 0 0 2.1217753198 0 
0 2.0559021366 0 1.9850237557 0 0 2.1696291894 0 2.0743588343 
0 2.241094845 0 2.3910729866 0 2.3302937945 0 2.2931565188 0 
0 2.260057365 0 0 0 2.3689157396 0 2.3151801531 0 
0 0 2.3126889541 0 0 2.4306290724 0 0 2.610894511 
0 0 0 2.6006371917 0 0 2.4323409761 0 0 
2.3366504079 0 0 2.1047847756 0 1.8530882146 1.7426359126 0 1.8058303912 
1.7574049443 1.6508641361 0 1.5672798498 0 0 1.1675018898 1.0529176208 0 
0 1.3979500101 0.46643850018 0.5454551574 2.4318890369 2.4336929865 2.4959485001 2.5774737686 2.0707262772 
1.9656027432 0.90777980182 1.8461158185 1.9724335211 0 0 0 0 0 
0 0 0 0 0 0 0 0 0 
0 0 0 0 0 0 0 0 0 
0 0 0 0 0 0 0 0 0 
0 0 0 0 0 0 0 0 0 
0 0 0 0 0 0 0 0 0 
0 0 0 0 0 0 0 0 0 
0 0 0 0 0 0 0 0 0 
0 0 0 0 0 0.81972404566 0 0 0 
2.3485232858 0 0 2.6400130338 0 0 0 2.3157812031 0 
2.387444166 0 2.5528949592 0 2.2881408071 0 0 0 2.4034677199 
0 2.4881718595 0 0 0 2.414913759 0 2.4122679371 0 
0 2.3311863909 0 2.3752375393 0 0 2.4170945142 0 2.3619302749 
0 2.3111738302 0 0 2.2802506074 0 2.3432610801 0 2.3981156912 
0 2.5257344284 0 2.6983418925 0 0 2.7140901888 0 2.517237214 
0 2.5120039362 0 2.5187704186 0 2.3469167533 2.475176696 0 2.2944076904 
0 2.1582228854 0 1.9379464306 1.8053744324 0 1.2985744005 0 0 
1.011790467 1.1017814559 1.1884821188 0.021570608516 0 1.50336211 1.4194247539 1.3271244065 0.66131755554 
1.3064003733 1.6251571384 2.2261277411 2.3585267356 2.3871092203 2.4488491948 2.0431588339 2.1461499337 1.8462659737 
1.5837698366 2.0599722518 0 0 0 0 0 0 0 
0 0 0 0 0 0 0 0 0 
0 0 0 0 0 0 0 0 0 
0 0 0 0 0 0 0 0 0 
0 0 0 0 0 0 0 0 0 
0 0 0 0 0 0 0 0 0 
0 0 0 0 0 0 0 0 0 
0 0 0 0 0 0 0 1.0018460075 0 
0 2.2694473413 0 2.6362370466 0 0 0 2.6719274557 0 
2.61764003 0 2.8198846366 2.7554553433 0 2.9167760849 0 0 2.6804437201 
0 2.5261072606 2.393437694 0 0 2.6039921511 0 2.4836626808 0 
2.3858464052 0 2.4193675934 0 2.4326833674 0 0 2.3698112839 0 
2.3964177573 0 0 0 0 0 2.2743986697 0 2.2938180294 
0 0 0 2.454027389 2.5690352619 0 2.5998553848 0 2.6278453465 
0 0 2.5993839737 0 0 2.5307684922 2.485239979 0 2.4195091856 
0 2.1266847193 0 1.9775559742 0 1.87039108 1.7118901792 0 1.5033893796 
1.5056922724 1.3903799576 0 0 1.5701588864 1.4310447229 0.42154053751 1.5734918199 0.97022977637 
1.1986576432 1.7444422031 1.9382813638 2.3098259721 2.2794779656 2.1371967296 1.9072727398 0 0 
0 0 0 0 0 0 0 0 0 
0 0 0 0 0 0 0 0 0 
0 0 0 0 0 0 0 0 0 
0 0 0 0 0 0 0 0 0 
0 0 0 0 0 0 0 0 0 
0 0 0 0 0 0 0 0 0 
0 0 0 0 0 0 0 0 0 
0 0 0 0 0 0 0 0 0 
2.6515004711 2.8126392574 0 2.8508753376 0 2.8820739178 0 3.0335755962 0 
2.9537837972 0 0 0 2.5184113801 0 2.5612284772 0 0 
0 2.5282720828 2.4541895704 0 0 2.390879317 0 2.3664915963 0 
2.3563150099 0 2.3220524061 0 0 2.2818907206 0 0 2.2356199098 
0 2.2290857928 2.3505003281 0 0 0 2.4060934928 2.3991257634 0 
0 2.4251887395 0 2.5525131527 0 2.5412841541 0 0 2.5270125819 
0 2.3829470487 2.2674742258 0 2.0992938533 0 1.9745385816 1.9713149657 0 
1.873754738 1.7244552205 0 0 0.31248585192 1.2922121708 1.6154108644 1.8268993586 2.2330801563 
2.1530094877 2.1940235914 1.6117310384 2.0633434007 1.9587667511 1.9475316771 1.8708092769 1.7310722799 1.6398798056 
0 0 0 0 0 0 0 0 0 
0 0 0 0 0 0 0 0 0 
0 0 0 0 0 0 0 0 0 
0 0 0 0 0 0 0 0 0 
0 0 0 0 0 0 0 0 0 
0 0 0 0 0 0 0 0 0 
0 0 0 0 0 0 0 0 0 
0 0 0 0 0 0 0 0 0 
0 0 0.935390288 0 0 2.3604038046 0 0 0 
2.9664197912 0 2.9648723334 0 0 3.1214070402 0 0 2.9334698113 
0 2.6882123056 0 2.5673290721 0 0 2.6308284682 0 2.618351708 
0 0 0 2.4823802265 2.3238248515 0 0 2.3505089219 0 
2.2999413913 0 2.2046900459 0 2.1717661062 0 2.2237504392 0 0 
0 0 2.1642258142 2.1604578 0 0 2.1212594654 0 0 
2.4661827292 0 2.4438470686 2.4511745612 0 2.4476323216 0 2.3882468086 0 
2.1910446593 2.1342010112 0 2.0833206771 0 0 1.7216548069 1.5837745193 1.6444085819 
0 0.84403973461 1.9687446326 2.3776512774 2.4150394389 1.7899686668 1.7251024345 0.38095253381 2.3433498365 
2.3854590539 2.3905770643 2.1638710599 1.9772905094 1.9213678044 1.9155578997 1.8203882349 2.0486805708 2.053091519 
1.9455329857 1.9546136886 1.9312207918 0 0 0 0 0 0 
0 0 0 0 0 0 0 0 0 
0 0 0 0 0 0 0 0 0 
0 0 0 0 0 0 0 0 0 
0 0 0 0 0 0 0 0 0 
0 0 0 0 0 0 0 0 0 
0 0 0 0 0 0 0 0 0 
0 0 0 0 0 0 0 0 0 
0 0 0 0 0 0 0 0 0 
0 0.69489671336 2.203706396 0 2.6762556506 0 2.8959094677 0 2.9890584823 
3.0237036907 0 2.994247374 0 3.0064768389 3.0983698908 0 3.0169517542 0 
2.6201863503 0 0 2.4946656464 0 0 2.5961145311 0 2.5668602652 
0 2.5468988835 0 0 2.326128507 2.274287841 0 2.3039192563 0 
0 0 2.1181706484 0 0 2.1596073328 2.1044992551 0 0 
1.8923433819 0 1.8751407385 0 0 2.1635777615 0 2.2152310409 0 
2.2668485325 0 0 2.3423311463 2.4355343588 0 2.3631864233 2.130054035 0 
2.0124898725 0 2.0761477745 1.9683097426 2.0326089302 0 1.9291185043 1.8888668662 0 
0 1.8439651493 2.4010250132 1.7317857348 0 1.2568105755 2.4314653334 2.4302457802 1.7771927082 
2.2883318497 2.1953163593 1.8839504062 1.9460454031 1.7753934301 1.9854904809 1.8352710413 0 0 
0 0 0 0 0 0 0 0 0 
0 0 0 0 0 0 0 0 0 
0 0 0 0 0 0 0 0 0 
0 0 0 0 0 0 0 0 0 
0 0 0 0 0 0 0 0 0 
0 0 0 0 0 0 0 0 0 
0 0 0 0 0 0 0 0 0 
0 0 0 0 0 0 0 0 0 
0 0 0 0 0 0 0 0 0 
0 0 0 0 0 2.5762525167 2.8063029879 0 2.9441904153 
0 0 0 2.9831683155 0 2.9511492142 0 2.7415338741 0 
2.5850160154 0 2.5073955311 0 2.5189018486 2.5418605061 0 0 2.5575121553 
0 2.5506537823 0 2.5036494748 0 0 0 2.2413267694 2.3108852951 
0 0 0 2.1722932833 0 2.0424672147 0 2.0375402949 0 
0 2.021911969 0 1.9470379435 0 0 0 1.9467355328 2.0019002928 
0 0 2.2900477451 0 0 2.2534508861 0 2.0736785685 0 
2.0527655023 0 1.8819236031 1.8483660271 0 1.980529051 0 1.9280961009 1.8777403207 
0 2.4177704692 2.6334434347 2.6651387754 1.8019810454 0 1.0937314436 1.9032716134 2.6091003015 
2.5144092085 1.7522538938 0 2.4014174496 2.2254123188 2.1576555653 1.7294373489 1.8257495619 1.7641407912 
1.8456290145 1.6535120952 0 0 0 0 0 0 0 
0 0 0 0 0 0 0 0 0 
0 0 0 0 0 0 0 0 0 
0 0 0 0 0 0 0 0 0 
0 0 0 0 0 0 0 0 0 
0 0 0 0 0 0 0 0 0 
0 0 0 0 0 0 0 0 0 
0 0 0 0 0 0 0 0 0 
0 0 0 0 0 1.5738207778 0 2.1903266884 0 
0 2.7789520516 0 2.929759418 0 2.9741254423 0 0 2.8272532347 
0 2.6972969642 0 0 0 2.5194058783 2.5467422858 0 0 
2.514161972 0 2.3847568278 0 0 0 2.263237342 0 2.1928324463 
0 2.061121768 0 1.9942390626 0 1.9880214422 0 0 1.834696497 
0 1.7865454067 1.7453592669 1.7562008898 1.7554338056 0 0 1.9977755205 0 
2.0778996926 2.034313247 2.0947936392 0 0 1.7277872394 1.8155227684 0 1.6343049155 
1.6371616383 1.9168441819 1.7030344234 1.76740844 0 0 2.6704739604 2.7065414549 1.7891796263 
1.7500449136 2.4935080671 2.6917037392 1.7228338187 0.78403799805 1.3113647137 2.6018520729 2.4360563346 1.706278812 
0 2.3300094042 1.5968525911 1.5800772141 2.2334518108 2.1832315996 2.1001702643 1.9916064929 1.5596991088 
1.5512003231 1.7721500143 1.6952551827 0 0 0 0 0 0 
0 0 0 0 0 0 0 0 0 
0 0 0 0 0 0 0 0 0 
0 0 0 0 0 0 0 0 0 
0 0 0 0 0 0 0 0 0 
0 0 0 0 0 0 0 0 0 
0 0 0 0 0 0 0 0 0 
0 0 0 0 0 0 0 0 0 
0 0 0 0 0 0 0 0 0 
0 0 0 0.90062665452 0 1.7705920318 0 0 2.6244264443 
0 0 2.8407622962 2.9141192228 0 2.9655719509 0 3.0608302131 3.0121140897 
0 2.8783763271 0 2.5562087098 0 2.4833957237 0 0 2.5446857852 
0 2.5488266881 0 0 0 0 2.2285750816 0 2.208953977 
0 2.2049887296 0 2.1020679282 0 2.0391101289 0 0 1.9103882519 
0 1.9137513339 0 0 1.7177639325 0 1.6873983235 0 1.7860508106 
1.8772862397 0 0 1.9133585782 1.7786217857 0 1.5651618928 1.6468752717 0 
0 1.6468446696 2.723243994 2.7619401511 1.7496892966 2.2170035167 2.7131508068 0 2.5807512984 
1.6690422176 0 1.1024988354 2.5324432619 1.6086180752 2.3030000949 1.4854299913 2.048639685 1.8577332688 
1.5313904652 1.5756998037 1.6712909234 1.5759365373 0 0 0 0 0 
0 0 0 0 0 0 0 0 0 
0 0 0 0 0 0 0 0 0 
0 0 0 0 0 0 0 0 0 
0 0 0 0 0 0 0 0 0 
0 0 0 0 0 0 0 0 0 
0 0 0 0 0 0 0 0 0 
0 0 0 0 0 0 0 0 0 
0 0 0 0 0 0 0 0 0 
0 0.55055200058 0 1.5404493575 0 2.3422961503 0 2.7231334517 0 
2.7844318709 2.9889481614 0 0 3.1186762699 3.0580094465 0 0 0 
2.7073376926 0 2.5874086232 0 2.5404834517 2.5103099663 0 2.5614274595 2.5023387771 
2.3276568172 0 0 0 2.2818938614 0 2.258286515 2.1762668954 0 
0 2.1026988556 0 1.9848388849 1.8618074334 0 1.7247494963 0 0 
0 1.6543278671 0 1.6614135465 0 1.7488259582 1.793490605 0 1.845702587 
0 1.6802105561 1.5858598033 1.4110579935 1.4555789194 1.4855132038 0 1.5137520662 0 
1.6183187791 2.7136971723 2.7729643635 2.7644622879 2.7190019921 1.6553956922 0 1.7263619683 1.6853743827 
0.76320312632 1.5197311832 1.5698553138 0 2.465495061 2.4319693137 1.592430213 2.1678246324 1.5270746113 
1.8930345203 1.7475143966 1.6235865499 1.4942847265 1.4810507267 1.5028722966 0 0 0 
0 0 0 0 0 0 0 0 0 
0 0 0 0 0 0 0 0 0 
0 0 0 0 0 0 0 0 0 
0 0 0 0 0 0 0 0 0 
0 0 0 0 0 0 0 0 0 
0 0 0 0 0 0 0 0 0 
0 0 0 0 0 0 0 0 0 
0 0 0 0 0 0 0 0 0 
0 0 0 1.8584653035 2.3320806552 0 2.6331674674 0 2.7210966591 
0 2.8564238528 3.0783244751 0 0 0 2.9490126249 2.7612671372 0 
0 2.5970806341 0 0 2.6412741217 0 0 0 2.2806071454 
0 2.2515338898 0 0 0 0 0 2.0692947338 0 
0 1.929952669 1.7875272531 0 1.6713918256 0 1.6345747715 0 1.5945481156 
0 1.6307609833 0 0 1.7219396941 0 0 1.6251831935 0 
1.3670631932 0 0 1.3805786405 1.4752290283 1.5792600873 0 1.5554058444 2.6475583652 
2.8060888341 2.7686271192 1.5466737715 0 2.1498506381 2.741803214 1.5996150555 1.3944426344 2.6645892924 
2.6144521644 1.6245766093 0 2.3182331747 1.5387779625 1.574667412 1.9639674675 1.5685088253 1.8530916267 
1.8066749433 1.7786973841 1.6967701202 1.6077963499 0 0 0 0 0 
0 0 0 0 0 0 0 0 0 
0 0 0 0 0 0 0 0 0 
0 0 0 0 0 0 0 0 0 
0 0 0 0 0 0 0 0 0 
0 0 0 0 0 0 0 0 0 
0 0 0 0 0 0 0 0 0 
0 0 0 0 0 0 0 0 0 
0 0 0 0 0 0 1.135228727 0 1.588071551 